BEGIN_CFG
 Size
    58
 Supercell
        10.000000      0.000000      0.000000
         0.000000     10.000000      0.000000
         0.000000      0.000000     10.000000
 AtomData:  id type       cartes_x      cartes_y      cartes_z           fx          fy          fz
             1    2       2.204016      1.209055      0.812578     0.782050   -3.357064  -19.241303
             2    2       4.390726      9.972297      2.698311    -0.218699   -1.770576    0.603217
             3    1       4.406426      2.522899      1.691384     1.417866   -1.125841   -8.552556
             4    2       6.592337      1.172351      0.786770     0.280832  -10.419187   53.818404
             5    2       8.807422      9.974879      2.689501     1.570622   -1.505844    0.017781
             6    1       8.836887      2.555994      1.761585     2.504158    0.322521  -30.131624
             7    1       2.133272      6.375563      1.759709    -3.574564    2.148864  -27.099180
             8    2       2.123322      3.782057      2.689597    -4.398271   -1.236987    0.042463
             9    1       6.578984      6.331383      1.691505    -0.718355   -0.076150   -3.774708
            10    2       6.595188      3.800187      2.707985     0.562661   -0.148356    1.190250
            11    2       4.389737      5.065008      0.844258     0.183404   -0.604271    0.596634
            12    2       8.782457      5.064652      0.854096    -0.500614   -0.206801  -25.568421
            13    2       2.203117      8.941883      0.800328     0.454001    4.709412   -6.932534
            14    2       4.388776      7.634613      2.703455    -0.362517    1.612237    0.921500
            15    2       6.595143      8.979898      0.770876     0.588427    9.764294   26.644101
            16    2       8.849031      7.612874      2.687794     4.028691    0.310711   -0.116853
            17    0       2.173450      1.294096      3.644476    -1.299608    1.352987    3.494058
            18    2       2.184209      1.268079      6.292873    -0.665809   -0.075143    1.091300
            19    0       6.589824      1.286014      3.655242     0.093438    0.833622    5.090346
            20    1       4.394486      0.052052      5.395157     0.210173    2.883205    1.179771
            21    2       6.589424      1.271680      6.297360     0.062515    0.034376    1.370946
            22    2       4.391598      2.537142      4.475847    -0.034486    0.087447   -0.431932
            23    1       8.799074      0.048024      5.383376     0.654039    2.639776    0.475664
            24    2       8.795655      2.542125      4.478771     0.621873    0.358511   -0.283600
            25    1       2.184819      3.805167      5.379273    -0.547170    0.072667    0.017991
            26    2       2.183694      6.344055      4.478573    -0.694155    0.242514   -0.287317
            27    2       4.391088      5.069984      6.283133    -0.064428   -0.109921    0.447981
            28    0       4.390514      5.071514      3.653261    -0.108521   -0.017946    4.315431
            29    1       6.585131      3.805244      5.379388    -0.230228    0.052919    0.069848
            30    2       6.589627      6.338495      4.475041     0.071196   -0.064378   -0.470212
            31    0       8.807791      5.079196      3.646150     1.341997    0.449952    3.399761
            32    2       8.795798      5.065382      6.279981     0.629779   -0.360627    0.286110
            33    2       2.176602      8.868690      6.291725    -1.068941   -0.309182    0.974393
            34    0       2.194881      8.862055      3.644810    -0.046489   -0.613800    3.796386
            35    0       6.589168      8.867654      3.646194     0.022633   -0.243906    4.348438
            36    1       4.394967      7.561206      5.385002     0.205247   -2.534656    0.465764
            37    2       6.589752      8.871389      6.311036     0.086063   -0.019128    2.162498
            38    1       8.794838      7.562375      5.383468     0.471710   -2.459989    0.290704
            39    1       2.136882      1.333224      9.003728    -3.663616    3.358220   16.287627
            40    2       4.391216      2.453768      9.917377     0.778981   -6.052624    5.044848
            41    0       4.391100      2.526463      7.108276    -0.053634   -0.537977   -4.067322
            42    1       6.577159      1.401370      9.056317    -1.036905   10.392042  -55.446691
            43    2       4.382852      0.003328      8.041916    -0.853392    0.143987   -1.479773
            44    0       8.806993      2.522691      7.114156     1.337642   -0.812027   -3.165960
            45    2       8.765668      2.505812      9.900207    -1.928645   -2.294503   30.312969
            46    2       8.880444      0.007601      8.070458     6.142689    0.431535    0.298656
            47    0       2.172336      6.331625      7.111570    -1.368993   -0.502939   -3.418258
            48    2       2.200417      6.352326      9.904398     0.509491    0.860631   27.738561
            49    2       2.123367      3.824305      8.069948    -4.419057    1.318913    0.003118
            50    0       6.589874      6.337564      7.104024     0.095330   -0.153813   -4.393696
            51    1       4.403394      5.072586      9.067062     0.711732   -0.077741    2.184655
            52    2       6.592849      6.358425      9.918444     0.059506    2.001568    0.678815
            53    2       6.595161      3.807041      8.051990     0.569995    0.431769   -1.020695
            54    1       8.842750      5.043026      8.999311     3.531503   -1.370883   24.434319
            55    1       2.104401      8.802793      9.008565    -5.988956   -4.191503    3.022702
            56    1       6.579897      8.809334      9.042309    -0.609764   -4.593868  -29.951123
            57    2       4.386589      7.608899      8.049279    -0.519802    0.122521   -1.138075
            58    2       8.853490      7.622717      8.065650     4.395380    0.910434   -0.146180
 Energy
       -345.003821903329
 PlusStress:  xx          yy          zz          yz          xz          xy
      -130.58882   -94.65444   -24.05580     0.51271     2.72896    -5.18039
 Feature   MV_grade	357886.848628
END_CFG

BEGIN_CFG
 Size
    58
 Supercell
        10.000000      0.000000      0.000000
         0.000000     10.000000      0.000000
         0.000000      0.000000     10.000000
 AtomData:  id type       cartes_x      cartes_y      cartes_z           fx          fy          fz
             1    2       2.198444      1.256550      0.779473     0.818483   -3.422000  -13.937889
             2    2       4.391750      9.993032      2.691556    -0.167356   -1.831173    0.569424
             3    1       4.396860      2.534970      1.706428     1.042518   -0.940666   -2.226549
             4    2       6.588650      1.245246      0.877428     0.033338   -6.990265   23.048119
             5    2       8.789501      9.993528      2.690394     1.551088   -1.585577   -0.002378
             6    1       8.798252      2.541159      1.673375     2.972220    0.779831  -17.376163
             7    1       2.180185      6.346977      1.674838    -3.622787    2.127424  -16.755242
             8    2       2.176871      3.797333      2.690435    -4.544115   -1.275699    0.080341
             9    1       6.584500      6.335209      1.733920    -0.817217   -0.541382    7.599838
            10    2       6.590309      3.802516      2.694788     0.569180   -0.271991    1.176524
            11    2       4.392493      5.070038      0.915662     0.161736   -0.501238   33.876881
            12    2       8.782998      5.071276      0.790866    -0.617738   -0.202525  -11.937951
            13    2       2.198348      8.889887      0.818272     0.416836    4.383928   -1.397785
            14    2       4.391425      7.614743      2.693381    -0.335575    1.803978    0.892778
            15    2       6.589865      8.898706      0.862000     0.458767    7.313429   15.523143
            16    2       8.801391      7.608438      2.689623     4.065664    0.451572   -0.109957
            17    0       2.189710      1.278059      3.599866    -1.365285    1.369678    3.681981
            18    2       2.191863      1.268890      6.280427    -0.653381   -0.033852    1.058734
            19    0       6.588756      1.275665      3.603332     0.076649    0.818429    4.886096
            20    1       4.393028      0.018260      5.382636     0.192673    2.985147    1.074013
            21    2       6.588692      1.270298      6.281914     0.057427    0.128592    1.320116
            22    2       4.392023      2.536198      4.480741    -0.028981    0.070295   -0.415136
            23    1       8.790632      0.016824      5.379936     0.713174    2.724818    0.371097
            24    2       8.788460      2.537975      4.481764     0.616019    0.347455   -0.269849
            25    1       2.191126      3.804236      5.379473    -0.513183    0.082393    0.036530
            26    2       2.191694      6.341199      4.481655    -0.684578    0.254752   -0.282666
            27    2       4.391847      5.071179      6.277939    -0.059629   -0.091585    0.410494
            28    0       4.391751      5.071669      3.603680    -0.083685   -0.005672    4.922571
            29    1       6.587174      3.804279      5.379549    -0.259620    0.084420    0.054716
            30    2       6.588784      6.339248      4.480456     0.067590   -0.056795   -0.454408
            31    0       8.791094      5.073635      3.600674     1.409880    0.462405    3.820674
            32    2       8.788525      5.069552      6.276900     0.626324   -0.349669    0.269155
            33    2       2.189063      8.872067      6.279991    -1.094593   -0.352605    0.968898
            34    0       2.195333      8.868488      3.600623    -0.026915   -0.589289    3.903579
            35    0       6.588701      8.870458      3.600975     0.033947   -0.150454    4.271710
            36    1       4.393237      7.591206      5.380751     0.214954   -2.678743    0.454634
            37    2       6.588790      8.872826      6.286799     0.076677   -0.140153    2.108813
            38    1       8.789071      7.591692      5.380095     0.469332   -2.564742    0.271746
            39    1       2.181121      1.287425      9.071592    -3.624921    3.488295   11.038499
            40    2       4.393379      2.519845      9.937881     0.464219   -4.845227   -1.294630
            41    0       4.391939      2.533039      7.157136    -0.036448   -0.683264   -4.262937
            42    1       6.584422      1.305762      8.979236    -0.830016    8.426523  -24.559417
            43    2       4.389715      0.002188      8.060049    -0.709901    0.105063   -1.595619
            44    0       8.790700      2.532215      7.158838     1.334184   -0.876654   -3.551808
            45    2       8.779072      2.528916      9.984900    -1.799671   -1.980952   17.715972
            46    2       8.810291      0.003317      8.068599     6.113520    0.378862    0.094593
            47    0       2.189273      6.337667      7.158206    -1.436995   -0.483845   -3.760803
            48    2       2.198632      6.341675      9.982982     0.920336    0.647911   17.101544
            49    2       2.176885      3.809316      8.068646    -4.545977    1.146638    0.045070
            50    0       6.588765      6.339211      7.155649     0.070641   -0.105055   -4.722204
            51    1       4.396194      5.072010      8.958804     0.827648    0.095718  -30.219833
            52    2       6.587745      6.344587      9.909632    -0.276632    1.494696  -11.046499
            53    2       6.590305      3.804080      8.064474     0.569621    0.140080   -0.991894
            54    1       8.799529      5.064950      9.067558     3.601615   -1.578118   11.203996
            55    1       2.172431      8.852235      9.029798    -5.750090   -4.211402   -2.426145
            56    1       6.585275      8.852364      8.988136    -0.549092   -3.959024  -18.896970
            57    2       4.390740      7.606897      8.063200    -0.429712    0.232227   -1.155159
            58    2       8.802467      7.610901      8.066922     4.317836    0.955061   -0.202387
 Energy
       -343.492896337425
 PlusStress:  xx          yy          zz          yz          xz          xy
      -134.01796   -97.75794    83.36952     4.39700     1.52784    -5.28670
 Feature   MV_grade	1577581.455518
END_CFG

BEGIN_CFG
 Size
    58
 Supercell
        10.000000      0.000000      0.000000
         0.000000     10.000000      0.000000
         0.000000      0.000000     10.000000
 AtomData:  id type       cartes_x      cartes_y      cartes_z           fx          fy          fz
             1    2       2.195830      1.267800      0.816848    -0.089022   -0.039813  -25.708328
             2    2       4.392260      9.999025      2.689720     0.018417   -0.316133    0.017764
             3    1       4.393618      2.538029      1.696496     0.446954    0.705873  -31.161113
             4    2       6.588448      1.267246      0.814908     0.043353   -0.220450  -26.336080
             5    2       8.784444      9.998745      2.690450     0.011591   -0.409447    0.251105
             6    1       8.788341      2.538202      1.700400     1.265961    0.756594  -29.902398
             7    1       2.192227      6.339922      1.699747    -1.259276    0.101547  -30.114104
             8    2       2.191832      3.801529      2.690277    -1.384506   -0.720726    0.197288
             9    1       6.587027      6.337086      1.694791    -0.426881   -0.813017  -31.714802
            10    2       6.588506      3.803411      2.691014     0.058221   -0.117345    0.432094
            11    2       4.392138      5.071627      0.796589    -0.029024   -0.021318  -32.245768
            12    2       8.784764      5.072119      0.800617     0.106747    0.135460  -30.947346
            13    2       2.197001      8.875847      0.822926     0.275141    0.127751  -23.752040
            14    2       4.392474      7.608815      2.690521     0.074444    0.413737    0.272665
            15    2       6.588389      8.875563      0.823074     0.013500    0.034052  -23.706506
            16    2       8.788074      7.606940      2.690018     1.170900   -0.193016    0.107850
            17    0       2.194210      1.273567      3.587747    -0.612344    1.820331    0.494285
            18    2       2.193993      1.269000      6.276980    -0.682543    0.347648    0.358589
            19    0       6.588506      1.272961      3.587541     0.061883    1.622372    0.425535
            20    1       4.392424      0.008507      5.379167     0.068237    2.743062   -0.049301
            21    2       6.588504      1.269855      6.277623     0.061543    0.620352    0.563782
            22    2       4.392119      2.535969      4.482087    -0.031089    0.039649   -0.220542
            23    1       8.788287      0.007913      5.378787     1.252277    2.547418   -0.174304
            24    2       8.786450      2.536840      4.482630     0.653741    0.318547   -0.047423
            25    1       2.192793      3.803960      5.379385    -1.075294    0.063122    0.016906
            26    2       2.193927      6.340368      4.482563    -0.712022    0.246263   -0.066907
            27    2       4.392042      5.071476      6.276600    -0.061830   -0.068400    0.231769
            28    0       4.392025      5.071686      3.587669    -0.066333   -0.001511    0.466615
            29    1       6.587995      3.803994      5.379408    -0.107956    0.072709    0.025597
            30    2       6.588563      6.339435      4.481932     0.073062   -0.058801   -0.274059
            31    0       8.786450      5.072112      3.587948     0.650001    0.133980    0.554153
            32    2       8.786483      5.070693      6.276034     0.661133   -0.323347    0.048248
            33    2       2.192635      8.873208      6.276814    -1.133144   -0.722836    0.301029
            34    0       2.195417      8.870392      3.587934    -0.235751   -1.631978    0.551715
            35    0       6.588584      8.870943      3.587244     0.075768   -1.455591    0.325709
            36    1       4.392557      7.599964      5.379323     0.101536   -2.439871   -0.007217
            37    2       6.588540      8.873303      6.279930     0.060992   -0.694010    1.303803
            38    1       8.787535      7.600088      5.379206     0.993860   -2.402099   -0.042634
            39    1       2.193056      1.275832      9.043633    -0.983499    2.550414   25.190251
            40    2       4.392147      2.535739      9.959288    -0.024264   -0.034559   31.350386
            41    0       4.392065      2.535259      7.171180    -0.049215   -0.189656   -0.402500
            42    1       6.587034      1.278402      9.046473    -0.412998    3.377902   26.107060
            43    2       4.391954      0.001881      8.065266    -0.080941    0.605355   -1.196539
            44    0       8.786323      2.535066      7.170756     0.612335   -0.253626   -0.541872
            45    2       8.784672      2.535253      9.956875     0.080788   -0.193548   30.569464
            46    2       8.790384      0.002116      8.068314     1.926418    0.678891   -0.215830
            47    0       2.194003      6.339263      7.170789    -0.687769   -0.109843   -0.529769
            48    2       2.195876      6.339598      9.957038    -0.084207   -0.002049   30.624464
            49    2       2.191834      3.805576      8.068426    -1.382773    0.585367   -0.177964
            50    0       6.588533      6.339558      7.171129     0.062660   -0.017911   -0.421658
            51    1       4.393588      5.071636      9.065538     0.439859   -0.018336   32.251729
            52    2       6.588398      6.340055      9.960086     0.018594    0.143318   31.604751
            53    2       6.588511      3.803657      8.067692     0.059561   -0.036899   -0.417899
            54    1       8.787695      5.070339      9.059726     1.051119   -0.437443   30.378500
            55    1       2.191118      8.865936      9.037317    -1.621656   -3.067311   23.147045
            56    1       6.587040      8.864951      9.037875    -0.421580   -3.388263   23.327054
            57    2       4.392089      7.606113      8.066978    -0.051124   -0.457399   -0.648901
            58    2       8.788342      7.607738      8.067527     1.256440    0.064834   -0.473398
 Energy
       -258.282577246994
 PlusStress:  xx          yy          zz          yz          xz          xy
       -27.10414    33.57468  -558.51117     0.64101    -1.22586     1.14017
 Feature   MV_grade	949528.678719
END_CFG

BEGIN_CFG
 Size
    58
 Supercell
        10.000000      0.000000      0.000000
         0.000000     10.000000      0.000000
         0.000000      0.000000     10.000000
 AtomData:  id type       cartes_x      cartes_y      cartes_z           fx          fy          fz
             1    2       2.198497      1.249005      0.818992     1.034496   -1.646242  -52.544151
             2    2       4.391788      9.990356      2.692457    -0.548646   -1.717864    0.641573
             3    1       4.397544      2.533200      1.707469     2.918223   -1.728644  -25.870988
             4    2       6.589604      1.238130      0.794431     1.443081  -31.207031  288.551305
             5    2       8.791838      9.990999      2.690130     1.687765   -1.267549    0.152814
             6    1       8.804171      2.544225      1.737174     0.224929   -1.657284  -69.877170
             7    1       2.173210      6.351350      1.736119    -2.467607    1.576827  -64.771434
             8    2       2.169655      3.795239      2.690064    -3.929958   -1.044095    0.198150
             9    1       6.584447      6.334939      1.706326    -1.038563    0.515958   -9.822153
            10    2       6.590656      3.802316      2.696456     0.825801    0.081365    1.264073
            11    2       4.391376      5.069524      0.826668     0.838098   -0.850988   -2.410125
            12    2       8.784060      5.069668      0.835812    -0.914538    0.216411  -61.935423
            13    2       2.198914      8.896721      0.816002     0.393298    4.795262  -20.195079
            14    2       4.391299      7.617245      2.694654    -0.668093    1.304874    1.000522
            15    2       6.590517      8.907896      0.799794     1.332832   21.795056  143.497516
            16    2       8.807740      7.608946      2.689307     3.867878    0.102479   -0.028905
            17    0       2.187471      1.280209      3.606169    -1.096625    1.291213    2.755330
            18    2       2.190848      1.268738      6.282073    -0.680342   -0.095551    1.122581
            19    0       6.588918      1.277165      3.609309     0.111162    0.727198    6.534556
            20    1       4.393086      0.022625      5.384246     0.411299    2.776084    1.454479
            21    2       6.588797      1.270507      6.283944     0.063039   -0.204141    1.458921
            22    2       4.391955      2.536334      4.480091    -0.033677    0.105821   -0.454323
            23    1       8.791800      0.020908      5.380201     0.458350    2.508558    0.892308
            24    2       8.789413      2.538536      4.481398     0.627181    0.363844   -0.311342
            25    1       2.190238      3.804351      5.379336    -0.566750    0.059351    0.066108
            26    2       2.190634      6.341565      4.481284    -0.705008    0.230759   -0.311145
            27    2       4.391738      5.071008      6.278688    -0.064122   -0.130137    0.462815
            28    0       4.391555      5.071639      3.609047    -0.126045   -0.025909    4.097896
            29    1       6.587060      3.804405      5.379377    -0.307697   -0.036380    0.256053
            30    2       6.588904      6.339138      4.479723     0.069596   -0.067440   -0.478870
            31    0       8.793381      5.074404      3.607008     1.142826    0.374826    2.333470
            32    2       8.789484      5.068989      6.277293     0.634985   -0.366560    0.314301
            33    2       2.187448      8.871719      6.281618    -1.044806   -0.326830    0.898030
            34    0       2.195259      8.867719      3.606273    -0.069060   -0.740570    3.641673
            35    0       6.588780      8.869959      3.606175    -0.007380   -0.260337    5.334562
            36    1       4.393342      7.587378      5.381121     0.314133   -2.363765    0.662781
            37    2       6.588924      8.872613      6.289932     0.095236    0.273114    2.333326
            38    1       8.789888      7.587856      5.380568     0.411697   -2.277135    0.322126
            39    1       2.175006      1.294435      9.027297    -3.514557    1.870450   49.608153
            40    2       4.391719      2.509875      9.933144     3.349556   -7.446189   21.220616
            41    0       4.391769      2.532322      7.150712     0.003931   -0.439225   -3.628314
            42    1       6.583906      1.317498      9.061136    -2.528283   24.601579 -291.012732
            43    2       4.389100      0.002305      8.057669    -1.395948    0.282888   -1.138267
            44    0       8.792981      2.531035      7.152228     1.172849   -0.766550   -1.807325
            45    2       8.778627      2.525990      9.921568    -3.806711   -3.300071   69.233904
            46    2       8.819383      0.003844      8.068874     6.189999    0.587553    0.798211
            47    0       2.186969      6.336815      7.151405    -1.177975   -0.474161   -2.270852
            48    2       2.197363      6.343604      9.922909     0.629589    0.857434   65.554557
            49    2       2.169703      3.811506      8.068936    -3.999072    1.386281   -0.188193
            50    0       6.588951      6.338950      7.149267     0.109217   -0.173816   -4.083451
            51    1       4.396734      5.072091      9.051891     0.505582   -0.230947    3.989206
            52    2       6.589770      6.345691      9.933891    -0.364587    3.932957    6.352148
            53    2       6.590628      3.804584      8.062663     0.845501    0.862600   -0.759544
            54    1       8.805408      5.061413      9.022683     3.227147   -0.307643   59.472515
            55    1       2.163441      8.845642      9.027878    -6.225318   -3.758000   15.406094
            56    1       6.584718      8.847348      9.045825    -1.199825   -9.257552 -146.965907
            57    2       4.390375      7.607054      8.061250    -0.840650    0.003462   -0.945949
            58    2       8.809283      7.612586      8.066897     4.382562    0.684401   -0.071033
 Energy
       -338.207830166517
 PlusStress:  xx          yy          zz          yz          xz          xy
      -113.57525   -96.91217   240.24825   -20.60597     7.20860    -3.67283
 Feature   MV_grade	414345.925128
END_CFG

BEGIN_CFG
 Size
    58
 Supercell
        10.000000      0.000000      0.000000
         0.000000     10.000000      0.000000
         0.000000      0.000000     10.000000
 AtomData:  id type       cartes_x      cartes_y      cartes_z           fx          fy          fz
             1    2       2.197439      1.254153      0.841838     0.889040   -3.090367  -25.896770
             2    2       4.391916      9.992952      2.691631    -0.086051   -1.767340    0.550030
             3    1       4.396276      2.534527      1.699011     0.909838   -0.829944   13.275380
             4    2       6.589953      1.245518      0.850741    -0.622658   -4.259040  -53.877129
             5    2       8.789684      9.993235      2.690155     1.423484   -1.454557    0.009938
             6    1       8.799500      2.542975      1.768549     3.094530    0.569390  -32.559781
             7    1       2.178825      6.347909      1.764600    -3.726357    2.313558  -30.752269
             8    2       2.176205      3.797059      2.690050    -4.381092   -1.176324    0.045245
             9    1       6.585276      6.335296      1.706379    -0.592584   -0.089581    1.149165
            10    2       6.589911      3.802703      2.694780     0.581433   -0.310051    1.135508
            11    2       4.391158      5.070356      0.848945     0.408374   -0.680289  -26.618143
            12    2       8.784541      5.069941      0.855188    -0.485085    0.047042  -23.402915
            13    2       2.198275      8.889820      0.817636     0.464281    4.909970   -1.168682
            14    2       4.391746      7.614813      2.693338    -0.375595    1.601245    0.917780
            15    2       6.589829      8.897088      0.790642     0.519064    8.122323   22.122618
            16    2       8.801821      7.608387      2.689497     4.017370    0.368692   -0.110770
            17    0       2.189428      1.278229      3.600929    -1.290950    1.337304    3.380072
            18    2       2.191811      1.268834      6.280491    -0.660925   -0.066282    1.095134
            19    0       6.588796      1.275938      3.603362     0.083733    0.800457    3.684530
            20    1       4.392891      0.018386      5.382739     0.137672    2.887077    0.999481
            21    2       6.588709      1.270361      6.281928     0.058288    0.074659    1.429699
            22    2       4.392008      2.536215      4.480696    -0.037500    0.082618   -0.408164
            23    1       8.790724      0.017032      5.379733     0.744241    2.620530    0.340395
            24    2       8.788505      2.538015      4.481797     0.625337    0.358037   -0.280105
            25    1       2.191035      3.804255      5.379371    -0.552777    0.051451   -0.039871
            26    2       2.191642      6.341203      4.481695    -0.693594    0.248691   -0.289139
            27    2       4.391830      5.071159      6.278029    -0.061811   -0.105272    0.460932
            28    0       4.391699      5.071664      3.602922    -0.099282   -0.020275    4.012381
            29    1       6.587371      3.804251      5.379459    -0.234148    0.121404   -0.104222
            30    2       6.588799      6.339228      4.480400     0.072423   -0.060487   -0.462412
            31    0       8.791359      5.073727      3.601592     1.340749    0.445120    3.518061
            32    2       8.788568      5.069510      6.276892     0.628744   -0.356028    0.280961
            33    2       2.189020      8.872187      6.280193    -1.077546   -0.338706    0.950208
            34    0       2.195310      8.868579      3.600597    -0.034038   -0.620513    3.935539
            35    0       6.588740      8.870393      3.599994     0.016170   -0.356641    4.527899
            36    1       4.393071      7.591132      5.380531     0.212475   -2.544336    0.428783
            37    2       6.588804      8.872862      6.286971     0.083150   -0.204814    1.974047
            38    1       8.789183      7.591525      5.380159     0.471953   -2.494144    0.277564
            39    1       2.179915      1.289256      9.008299    -3.027220    3.274622   23.578911
            40    2       4.392220      2.518143      9.945698    -0.495346   -5.870009  -15.844537
            41    0       4.391870      2.533175      7.157048    -0.065084   -0.587257   -4.444522
            42    1       6.584978      1.307533      9.005951    -0.801226    5.790288   53.570071
            43    2       4.390013      0.002086      8.060061    -0.646213    0.207733   -1.675966
            44    0       8.790987      2.532231      7.157324     1.333133   -0.811713   -3.213231
            45    2       8.780051      2.528334      9.889102    -0.820629   -1.376335   33.558583