# LAMMPS data file written by OVITO Basic 3.7.11
96 atoms
4 atom types
0.0 10.579879119 xlo xhi
0.0 17.9358287417 ylo yhi
0.0 8.3794271901 zlo zhi
-4.5184179553e-07 -4.5268984929e-06 -7.6061535377e-06 xy xz yz

Masses

1 26.981538  # Al
2 44.95591  # Sc
3 63.546  # Cu
4 1.00794  # H

Atoms  # atomic

1 1 2.6450081299 4.4474175552 6.1923563243
2 1 2.6450106369 4.4474220364 2.1870775601
3 1 3.9337201065 0.8012164176 1.0892391929e-05
4 1 1.356256427 0.8011706434 1.0180099221e-05
5 1 10.5798439032 8.9313833597 6.192368275
6 1 10.579855327 8.9313851493 2.1870670292
7 1 1.288711094 5.2851247574 9.1440484112e-06
8 1 4.0012677852 5.2850933454 8.1889290627e-06
9 1 7.934863798 4.4474068994 6.1923540623
10 1 7.9348724697 4.4474201366 2.1870804923
11 1 9.2235968965 0.8011569708 3.4181705288e-06
12 1 6.646181959 0.8012012935 5.1717480993e-06
13 1 5.2899596931 8.9313993005 6.1923511661
14 1 5.2899606762 8.9313947797 2.1870827545
15 1 6.5786304406 5.2851185716 7.0170194859e-06
16 1 9.291148387 5.2851493038 8.7352312575e-06
17 2 2.6449522419 7.4694206958 6.7068797346
18 2 2.6449544761 1.4912846439 5.7240395682
19 2 2.6449620492 1.491288343 2.655342679
20 2 2.6449482244 7.4694214147 1.672572023
21 2 2.368178152e-06 2.9854811974 6.7068685144
22 2 10.5798667227 5.975243105 5.7240358009
23 2 10.5798733044 5.9752459075 2.6553489955
24 2 4.2880821363e-06 2.9854874138 1.6725858001
25 2 7.934916499 7.469425232 6.7068877423
26 2 7.9349112967 1.4912807111 5.7240412056
27 2 7.9349100914 1.4912862371 2.6553416819
28 2 7.9349260424 7.4694287113 1.6725661209
29 2 5.2899377026 2.9854832828 6.7069122578
30 2 5.289949164 5.975233489 5.7240413938
31 2 5.2899479909 5.9752253028 2.6553397243
32 2 5.2899436916 2.9854829003 1.6725453842
33 3 2.6449750941 2.9901823133 8.3794230408
34 3 1.3684906173 8.1954190667 4.1897132783
35 3 3.9214433053 8.1953979097 4.1897024561
36 3 2.6449707635 6.0086837713 4.189722444
37 3 10.5798718867 7.4741409179 8.3794235247
38 3 4.0134811602 3.7114461188 4.1897155325
39 3 1.2764687126 3.7114431939 4.1897021338
40 3 10.5798660877 1.5247102213 4.1897216953
41 3 7.9348944598 2.9901781386 8.3794219074
42 3 6.6584409084 8.1954004138 4.1897136143
43 3 9.2113687652 8.1954211298 4.189702184
44 3 7.93490181 6.0086896468 4.1897213276
45 3 5.2899372264 7.4741324772 8.37942246
46 3 9.3033984887 3.7114296674 4.1897142708
47 3 6.5664002641 3.7114315598 4.1897054866
48 3 5.2899481937 1.5247284597 4.1897237872
49 1 2.645007904 13.415331926 6.1923563243
50 1 2.645010411 13.4153364072 2.1870775601
51 1 3.9337198806 9.7691307885 1.0892391929e-05
52 1 1.3562562011 9.7690850142 1.0180099221e-05
53 1 10.5798436773 17.8992977305 6.192368275
54 1 10.5798551011 17.8992995201 2.1870670292
55 1 1.2887108681 14.2530391282 9.1440484112e-06
56 1 4.0012675593 14.2530077162 8.1889290627e-06
57 1 7.9348635721 13.4153212703 6.1923540623
58 1 7.9348722438 13.4153345075 2.1870804923
59 1 9.2235966706 9.7690713416 3.4181705288e-06
60 1 6.6461817331 9.7691156643 5.1717480993e-06
61 1 5.2899594672 17.8993136713 6.1923511661
62 1 5.2899604503 17.8993091505 2.1870827545
63 1 6.5786302146 14.2530329424 7.0170194859e-06
64 1 9.291148161 14.2530636747 8.7352312575e-06
65 2 2.644952016 16.4373350666 6.7068797346
66 2 2.6449542502 10.4591990147 5.7240395682
67 2 2.6449618233 10.4592027138 2.655342679
68 2 2.6449479984 16.4373357855 1.672572023
69 2 2.1422572543e-06 11.9533955683 6.7068685144
70 2 10.5798664968 14.9431574758 5.7240358009
71 2 10.5798730784 14.9431602783 2.6553489955
72 2 4.0621612386e-06 11.9534017846 1.6725858001
73 2 7.9349162731 16.4373396028 6.7068877423
74 2 7.9349110708 10.4591950819 5.7240412056
75 2 7.9349098655 10.4592006079 2.6553416819
76 2 7.9349258165 16.4373430821 1.6725661209
77 2 5.2899374767 11.9533976536 6.7069122578
78 2 5.289948938 14.9431478598 5.7240413938
79 2 5.289947765 14.9431396736 2.6553397243
80 2 5.2899434656 11.9533972711 1.6725453842
81 3 2.6449748682 11.9580966842 8.3794230408
82 3 1.3684903914 17.1633334375 4.1897132783
83 3 3.9214430794 17.1633122806 4.1897024561
84 3 2.6449705375 14.9765981421 4.189722444
85 3 10.5798716608 16.4420552887 8.3794235247
86 3 4.0134809343 12.6793604896 4.1897155325
87 3 1.2764684867 12.6793575647 4.1897021338
88 3 10.5798658618 10.4926245921 4.1897216953
89 3 7.9348942339 11.9580925094 8.3794219074
90 3 6.6584406825 17.1633147847 4.1897136143
91 3 9.2113685393 17.1633355006 4.189702184
92 3 7.9349015841 14.9766040176 4.1897213276
93 3 5.2899370005 16.4420468481 8.37942246
94 3 9.3033982628 12.6793440382 4.1897142708
95 3 6.5664000382 12.6793459307 4.1897054866
96 3 5.2899479678 10.4926428305 4.1897237872
