# LAMMPS data file written by OVITO Basic 3.7.11
108 atoms
4 atom types
0.0 12.12879 xlo xhi
0.0 12.12879 ylo yhi
0.0 12.12879 zlo zhi
-9.43545e-09 -1.40144e-08 -5.74951e-08 xy xz yz

Masses

1 26.98154  # Al
2 44.95591  # Sc
3 63.546  # Cu
4 1.00794  # H

Atoms  # atomic

1 1 12.12879 2.7686e-07 1.48805e-07
2 1 1.00004e-07 2.02128 2.02128
3 1 2.02128 2.57295e-07 2.02128
4 1 2.02128 2.02128 2.26573e-07
5 1 4.04262 2.40049e-07 2.4906e-07
6 1 4.04303 2.02137 2.02137
7 1 6.06439 4.01212e-07 2.02178
8 1 6.06439 2.02178 3.4903e-07
9 1 8.08617 3.74419e-08 5.63414e-08
10 1 8.08576 2.02137 2.02137
11 1 10.10751 2.21183e-07 2.02128
12 1 10.10751 2.02128 6.1231e-08
13 1 5.16761e-08 4.04262 2.53501e-08
14 1 9.19497e-08 6.06439 2.02178
15 1 2.02137 4.04303 2.02137
16 1 2.02178 6.06439 3.42377e-08
17 1 4.04311 4.04311 7.3707e-08
18 1 4.04311 6.06439 2.02128
19 1 6.06439 4.04311 2.02128
20 1 6.06439 6.06439 12.12879
21 1 8.08567 4.04311 12.12879
22 1 8.08567 6.06439 2.02128
23 1 10.10742 4.04303 2.02137
24 1 10.10701 6.06439 12.12879
25 1 12.12879 8.08617 4.91295e-08
26 1 5.2724e-08 10.10751 2.02128
27 1 2.02137 8.08576 2.02137
28 1 2.02128 10.10751 1.90585e-07
29 1 4.04312 8.08567 12.12879
30 1 4.04303 10.10742 2.02137
31 1 6.06439 8.08567 2.02128
32 1 6.06439 10.10701 12.12879
33 1 8.08567 8.08567 12.12879
34 1 8.08576 10.10742 2.02137
35 1 10.10742 8.08576 2.02137
36 1 10.10751 10.10751 12.12879
37 1 1.46594e-07 1.20495e-07 4.04262
38 1 12.12879 2.02178 6.06439
39 1 2.02178 12.12879 6.06439
40 1 2.02137 2.02137 4.04303
41 1 4.04311 2.55143e-07 4.04311
42 1 4.04312 2.02128 6.06439
43 1 6.06439 1.85714e-07 6.06439
44 1 6.06439 2.02128 4.04311
45 1 8.08567 4.04557e-07 4.04311
46 1 8.08567 2.02128 6.06439
47 1 10.10701 2.16975e-07 6.06439
48 1 10.10742 2.02137 4.04303
49 1 9.44239e-08 4.04311 4.04311
50 1 1.51764e-08 6.06439 6.06439
51 1 2.02128 4.04312 6.06439
52 1 2.02128 6.06439 4.04311
53 1 4.04303 4.04303 4.04303
54 1 4.04262 6.06439 6.06439
55 1 6.06439 4.04262 6.06439
56 1 6.06439 6.06439 4.04262
57 1 8.08576 4.04303 4.04303
58 1 8.08617 6.06439 6.06439
59 1 10.10751 4.04312 6.06439
60 1 10.10751 6.06439 4.04311
61 1 1.82611e-07 8.08567 4.04311
62 1 2.24336e-07 10.10701 6.06439
63 1 2.02128 8.08567 6.06439
64 1 2.02137 10.10742 4.04303
65 1 4.04303 8.08576 4.04303
66 1 4.04311 10.10751 6.06439
67 1 6.06439 8.08617 6.06439
68 1 6.06439 10.10751 4.04311
69 1 8.08576 8.08576 4.04303
70 1 8.08567 10.10751 6.06439
71 1 10.10751 8.08567 6.06439
72 1 10.10742 10.10742 4.04303
73 1 12.12879 4.03211e-08 8.08617
74 1 12.12879 2.02128 10.10751
75 1 2.02128 1.54532e-07 10.10751
76 1 2.02137 2.02137 8.08576
77 1 4.04311 12.12879 8.08567
78 1 4.04303 2.02137 10.10742
79 1 6.06439 12.12879 10.10701
80 1 6.06439 2.02128 8.08567
81 1 8.08567 12.12879 8.08567
82 1 8.08576 2.02137 10.10742
83 1 10.10751 -1.36714e-08 10.10751
84 1 10.10742 2.02137 8.08576
85 1 12.12879 4.04312 8.08567
86 1 12.12879 6.06439 10.10701
87 1 2.02137 4.04303 10.10742
88 1 2.02128 6.06439 8.08567
89 1 4.04303 4.04303 8.08576
90 1 4.04312 6.06439 10.10751
91 1 6.06439 4.04312 10.10751
92 1 6.06439 6.06439 8.08617
93 1 8.08576 4.04303 8.08576
94 1 8.08567 6.06439 10.10751
95 1 10.10742 4.04303 10.10742
96 1 10.10751 6.06439 8.08567
97 1 12.12879 8.08567 8.08567
98 1 12.12879 10.10751 10.10751
99 1 2.02137 8.08576 10.10742
100 1 2.02137 10.10742 8.08576
101 1 4.04303 8.08576 8.08576
102 1 4.04303 10.10742 10.10742
103 1 6.06439 8.08567 10.10751
104 1 6.06439 10.10751 8.08567
105 1 8.08576 8.08576 8.08576
106 1 8.08576 10.10742 10.10742
107 1 10.10742 8.08576 10.10742
108 1 10.10742 10.10742 8.08576
