# LAMMPS data file written by OVITO Basic 3.7.11
104 atoms
4 atom types
0.0 8.73482 xlo xhi
0.0 17.46965 ylo yhi
0.0 8.73482 zlo zhi
-2.91068e-07 -3.34641e-06 -3.10625e-06 xy xz yz

Masses

1 26.98154  # Al
2 44.95591  # Sc
3 63.546  # Cu
4 1.00794  # H

Atoms  # atomic

1 1 1.05658 1.05658 1.05658
2 1 7.67824 1.05658 7.67824
3 1 7.67824 7.67824 1.05658
4 1 1.05658 7.67824 7.67824
5 1 7.06734 4.06144 1.66748
6 1 4.06144 7.06734 1.66748
7 1 7.06734 4.67338 7.06734
8 1 4.67338 7.06734 7.06734
9 1 1.66748 7.06734 4.06144
10 1 7.06734 1.66748 4.06144
11 1 4.67338 1.66748 1.66748
12 1 4.06143 1.66748 7.06734
13 1 1.66748 4.06143 7.06734
14 1 1.66748 4.67338 1.66748
15 1 7.06734 7.06734 4.67338
16 1 1.66748 1.66748 4.67339
17 3 2.84119 5.89362 5.89363
18 3 5.62414 -1.1907e-06 8.73481
19 3 -4.87837e-07 -3.4389e-07 3.11068
20 3 -6.8884e-07 -5.73968e-07 5.62414
21 3 -1.56725e-06 5.62414 8.73481
22 3 1.93986e-06 3.11068 1.09118e-05
23 3 7.47019 4.36741 4.36742
24 3 1.26463 4.36741 4.36741
25 3 4.36741 4.36741 7.4702
26 3 4.36741 4.36741 1.26463
27 3 3.11068 1.95787e-06 1.08813e-05
28 3 4.36741 7.47019 4.36742
29 3 2.76074 2.76074 0.27043
30 3 5.97408 0.27041 5.97407
31 3 5.97408 8.46441 2.76074
32 3 8.46441 5.97408 2.76074
33 3 0.27041 5.97408 5.97407
34 3 2.76074 5.97408 8.46441
35 3 5.97408 2.76074 8.46441
36 3 0.27041 2.76075 2.76075
37 3 2.76075 0.27041 2.76075
38 3 8.46441 2.76075 5.97409
39 3 2.76075 8.46441 5.97409
40 3 5.97408 5.97408 0.2704
41 3 5.89362 5.89362 2.84119
42 3 5.89362 2.84119 5.89363
43 3 2.84119 2.84119 2.84121
44 3 7.25673 1.47809 1.47809
45 3 1.47809 1.47809 7.25675
46 3 1.47809 7.25673 1.47809
47 3 7.25673 7.25673 7.25672
48 3 5.29019 3.44464 3.44463
49 3 3.44463 3.44463 5.29018
50 3 3.44464 5.29019 3.44463
51 3 5.29019 5.29019 5.2902
52 3 4.36741 1.26463 4.36741
53 1 1.05658 9.7914 1.05658
54 1 7.67824 9.7914 7.67824
55 1 7.67824 16.41307 1.05658
56 1 1.05658 16.41307 7.67824
57 1 7.06734 12.79626 1.66748
58 1 4.06144 15.80216 1.66748
59 1 7.06734 13.4082 7.06734
60 1 4.67338 15.80216 7.06734
61 1 1.66748 15.80216 4.06144
62 1 7.06734 10.40231 4.06144
63 1 4.67338 10.40231 1.66748
64 1 4.06143 10.40231 7.06734
65 1 1.66748 12.79626 7.06734
66 1 1.66748 13.40821 1.66748
67 1 7.06734 15.80216 4.67338
68 1 1.66748 10.4023 4.67339
69 3 2.84119 14.62845 5.89363
70 3 5.62414 8.73482 8.73481
71 3 -6.33371e-07 8.73482 3.11068
72 3 -8.34374e-07 8.73482 5.62414
73 3 -1.71278e-06 14.35896 8.73481
74 3 1.79433e-06 11.84551 1.09118e-05
75 3 7.47019 13.10224 4.36742
76 3 1.26463 13.10224 4.36741
77 3 4.36741 13.10223 7.4702
78 3 4.36741 13.10224 1.26463
79 3 3.11068 8.73483 1.08813e-05
80 3 4.36741 16.20502 4.36742
81 3 2.76074 11.49557 0.27043
82 3 5.97408 9.00524 5.97407
83 3 5.97408 17.19923 2.76074
84 3 8.46441 14.7089 2.76074
85 3 0.27041 14.7089 5.97407
86 3 2.76074 14.7089 8.46441
87 3 5.97408 11.49556 8.46441
88 3 0.27041 11.49557 2.76075
89 3 2.76075 9.00524 2.76075
90 3 8.46441 11.49557 5.97409
91 3 2.76075 17.19923 5.97409
92 3 5.97408 14.7089 0.2704
93 3 5.89362 14.62845 2.84119
94 3 5.89362 11.57602 5.89363
95 3 2.84119 11.57602 2.84121
96 3 7.25673 10.21291 1.47809
97 3 1.47809 10.21291 7.25675
98 3 1.47809 15.99156 1.47809
99 3 7.25673 15.99156 7.25672
100 3 5.29019 12.17946 3.44463
101 3 3.44463 12.17946 5.29018
102 3 3.44463 14.02501 3.44463
103 3 5.29019 14.02501 5.2902
104 3 4.36741 9.99945 4.36741
