# LAMMPS data file written by OVITO Basic 3.7.11
108 atoms
4 atom types
0.0 14.7048198797 xlo xhi
0.0 12.7347732787 ylo yhi
0.0 12.3146152128 zlo zhi
-7.352364488 4.1207734513e-07 -5.6890626088e-07 xy xz yz

Masses

1 26.981538  # Al
2 44.95591  # Sc
3 63.546  # Cu
4 1.00794  # H

Atoms  # atomic

1 1 2.4490529581 1.4139367143 4.6180047987
2 1 2.7114499712e-05 2.8279332167 1.5393371691
3 1 7.3524595293 1.4185606119 4.618000776
4 1 4.901000774 2.8295717571 1.5393430507
5 1 12.255819738 1.4139335925 4.6180077219
6 1 9.8038599716 2.8295878541 1.5393450804
7 1 -1.0050940642e-05 5.6592045976 4.6179983038
8 1 -2.4476942252 7.0767477182 1.5393479584
9 1 4.9047948055 5.6580822485 4.6180081418
10 1 2.4476711069 7.0766969915 1.5393342952
11 1 9.8001482208 5.6580771677 4.6180029374
12 1 7.352455548 7.0756069065 1.5393358611
13 1 -2.4514215408 9.9051945612 4.6180082109
14 1 -4.9033399107 11.3208119973 1.5393453116
15 1 2.4514318539 9.9051942248 4.6180037972
16 1 -4.3442299881e-05 11.316187264 1.5393452088
17 1 7.3524587566 9.9068514657 4.618012829
18 1 4.9034142649 11.3207825821 1.5393334666
19 1 2.449048698 1.4139545406 10.7752792598
20 1 3.4220901806e-05 2.8279203945 7.6966119616
21 1 7.3524700561 1.4185518642 10.7752771264
22 1 4.9010001688 2.8295826607 7.6966068536
23 1 12.2558150233 1.4139291558 10.7752721533
24 1 9.8038546398 2.8295924007 7.6966107368
25 1 2.2896001004e-06 5.6592009246 10.7752762577
26 1 -2.4477030011 7.0767587244 7.6966109508
27 1 4.904782659 5.6580937772 10.7752747285
28 1 2.4476662896 7.0767051087 7.6966155893
29 1 9.8001481134 5.6580892742 10.7752711944
30 1 7.3524679133 7.0755952672 7.6966142604
31 1 -2.4514227537 9.9051846844 10.7752662297
32 1 -4.9033470869 11.3208091708 7.6966038342
33 1 2.4514398694 9.9051924774 10.7752753022
34 1 -2.9425638591e-05 11.3161724654 7.6966099473
35 1 7.3524553285 9.9068358067 10.7752704906
36 1 4.9034107344 11.3207887755 7.696612471
37 2 7.3524741901 12.7347201966 7.8484541654e-06
38 2 7.352469423 12.7347285768 3.0787397732
39 2 2.4508352432 1.4149768749 1.539385442
40 2 2.2900524732e-05 2.8299745483 4.6180143302
41 2 -2.4506835577 12.7347497671 2.5932058972e-06
42 2 -2.450670386 12.7347492338 3.078723878
43 2 7.3524263425 1.4146973624 1.5393892371
44 2 4.9012806841 2.8297178189 4.6180181017
45 2 2.450755576 12.7347420735 12.3146003456
46 2 2.450750398 12.7347389237 3.0787288761
47 2 12.2540103404 1.4149737202 1.5393830697
48 2 9.8035932476 2.8297266947 4.6180150387
49 2 -2.4508471578 4.2450417499 -1.5796127454e-06
50 2 -2.4508384515 4.2450338724 3.0787229835
51 2 4.3161705458e-06 5.6595242571 1.5393794392
52 2 -2.4510322975 7.0747964465 4.6180135991
53 2 2.450894113 4.2450288306 2.6231614918e-06
54 2 2.4508911475 4.2450273317 3.0787311241
55 2 4.901426332 5.6600314664 1.5393862907
56 2 2.4510328621 7.0747768043 4.6180188138
57 2 7.3524854745 4.2449171897 12.3145269382
58 2 7.3524739688 4.2449115998 3.078812585
59 2 9.8034723185 5.6600448255 1.5393851829
60 2 7.3524658836 7.0752983737 4.6180125462
61 2 -4.9015250762 8.4897800119 1.206542409e-05
62 2 -4.9015269313 8.4897841853 3.0787170872
63 2 -2.4511529522 9.9050334129 1.5393904484
64 2 -4.9015350858 11.3197627477 4.6180104642
65 2 -4.0267330971e-05 8.489888523 8.6819761037e-05
66 2 -3.8426213785e-05 8.4899014675 3.0786550773
67 2 2.4511643605 9.9050240766 1.5393922013
68 2 1.6723539159e-06 11.3200569053 4.6180232998
69 2 4.9015918677 8.4897665156 2.3774800996e-06
70 2 4.9015908437 8.4897656867 3.0787276885
71 2 7.3524577282 9.904783157 1.5393932976
72 2 4.9016200879 11.3197603767 4.6180126734
73 2 -7.3523495632 12.734733236 6.1573027597
74 2 -7.3523454484 12.7347364877 9.2358787624
75 2 2.4508440559 1.414975451 7.6965833131
76 2 1.681868753e-05 2.8299620208 10.7752505953
77 2 4.9017009586 -1.6475255611e-05 6.1573101715
78 2 -2.4506765946 12.7347571912 9.2358849279
79 2 7.3524233037 1.414693661 7.6965785829
80 2 4.9012908596 2.8297223799 10.7752440019
81 2 2.4507440256 12.7347407176 6.1573097392
82 2 2.4507501957 12.7347453904 9.2358984424
83 2 12.2540045443 1.4149734865 7.6965872662
84 2 9.8035896151 2.8297332204 10.7752491532
85 2 -2.4508348838 4.2450341672 6.1573058222
86 2 -2.4508410187 4.2450366765 9.235897318
87 2 3.9241738132e-06 5.6595269522 7.6965856705
88 2 -2.4510243867 7.0747872037 10.7752514411
89 2 2.4508939951 4.2450298267 6.1573083899
90 2 2.4508894551 4.2450241711 9.2358788291
91 2 4.901425919 5.6600333169 7.6965816155
92 2 2.4510300875 7.0747758026 10.7752443036
93 2 7.352469801 4.2449047962 6.1572350896
94 2 7.3524791605 4.2449071121 9.2359604937
95 2 9.8034714883 5.660043086 7.6965819816
96 2 7.3524640752 7.0752819061 10.7752490873
97 2 -4.9015260909 8.4897780076 6.1573051457
98 2 -4.9015252079 8.4897752373 9.2358883073
99 2 -2.4511477304 9.9050383326 7.6965738389
100 2 -4.9015467493 11.3197778755 10.7752518306
101 2 -3.1965414006e-05 8.4898978546 6.1573825208
102 2 -3.3285581585e-05 8.4898864972 9.2357989114
103 2 2.4511653619 9.9050242047 7.696575106
104 2 1.8577221427e-06 11.3200520692 10.7752420364
105 2 4.9015808581 8.489760864 6.1573071846
106 2 4.9015860383 8.4897610956 9.2358820943
107 2 7.352455263 9.9047777656 7.696574831
108 2 4.9016317367 11.3197680083 10.7752470483
