# LAMMPS data file written by OVITO Basic 3.7.10
607 atoms
4 atom types
0.0 20.0 xlo xhi
0.0 20.0 ylo yhi
0.0 20.0 zlo zhi

Masses

1 26.981538  # Al
2 44.95591  # Sc
3 63.546  # Cu
4 1.00794  # H

Atoms  # atomic

1 3 0.9865109307 0.335449255 3.72343
2 3 3.5618509307 0.335449255 3.72343
3 3 0.98651 0.33545 12.09175
4 3 3.56185 0.33545 12.09175
5 3 4.8495609307 1.0788605348 10.0
6 3 2.2742109307 1.0788602052 9.99999
7 3 0.9864609307 3.309149255 10.0
8 3 0.9863309307 7.769709255 9.99999
9 3 4.8495609307 1.0788600421 5.81583
10 3 4.8495609307 1.0788603541 1.63168
11 3 0.9865609307 1.822269255 7.90825
12 3 2.2742109307 1.0788598859 5.81583
13 3 3.5619009307 1.822269255 7.90825
14 3 2.2742109307 1.0788603747 1.63168
15 3 2.2741209307 2.565739255 3.72383
16 3 3.5618209307 3.309139255 5.81583
17 3 3.5618209307 3.309139255 1.63168
18 3 0.9864609307 3.309139255 5.81583
19 3 2.2741609307 4.052539255 7.90825
20 3 0.9864609307 3.309139255 1.63168
21 3 0.9863609307 4.796019255 3.72343
22 3 2.2740709307 5.539429255 1.63168
23 3 0.9864109307 6.282839255 7.90825
24 3 0.9863309307 7.769709255 1.63168
25 3 0.98656 1.82227 16.27657
26 3 2.27421 1.078860411 14.18416
27 3 3.5619 1.82227 16.27657
28 3 2.27412 2.56574 12.09215
29 3 3.56182 3.30914 10.0000002145
30 3 0.98646 3.30915 14.18416
31 3 2.27416 4.05254 16.27657
32 3 0.98636 4.79602 12.09175
33 3 2.27407 5.53943 14.18416
34 3 2.27407 5.53943 10.0000004094
35 3 0.98641 6.28283 16.27657
36 3 0.98633 7.76971 14.18416
37 3 4.84956 1.0788610992 18.36831
38 3 2.27421 1.0788611197 18.36831
39 3 3.56182 3.30914 18.36831
40 3 0.98646 3.30914 18.36831
41 3 2.27407 5.53943 18.36831
42 3 0.98633 7.76971 18.36831
43 3 7.4249109307 1.078859255 5.81583
44 3 10.0002698107 1.078859255 5.81584
45 3 6.1372209307 0.335449255 3.72343
46 3 8.7125609307 0.335449255 3.72343
47 3 11.2879309307 0.335449255 3.72343
48 3 13.8632709307 0.335449255 3.72343
49 3 6.13722 0.33545 12.09175
50 3 8.71256 0.33545 12.09175
51 3 11.28793 0.33545 12.09175
52 3 13.86327 0.33545 12.09175
53 3 15.1509809307 1.0788605348 10.0
54 3 7.4249209307 1.0788603014 10.0
55 3 10.0002709307 1.0788600577 9.99999
56 3 12.5756309307 1.0788602052 9.99999
57 3 8.7125209307 3.309149255 10.0
58 3 11.2878809307 3.309149255 10.0
59 3 4.8494244987 5.539429255 10.0
60 3 7.4247809307 5.539429255 9.99999
61 3 10.0001409307 5.539429255 10.0
62 3 11.2877509307 7.769709255 9.99999
63 3 3.5616809307 7.769709255 9.99999
64 3 6.1370309307 7.769709255 9.99999
65 3 8.7123909307 7.769709255 9.99999
66 3 15.1509809307 1.0788600421 5.81583
67 3 6.1372709307 1.822269255 7.90825
68 3 15.1509809307 1.0788603541 1.63168
69 3 4.8494677097 2.565749255 3.72343
70 3 2.2739309307 9.999999255 5.81583
71 3 8.7126109307 1.822269255 7.90825
72 3 7.4249209307 1.0788604133 1.63168
73 3 7.4248209307 2.565739255 3.72383
74 3 4.8492898107 9.999999255 5.81584
75 3 11.2879809307 1.822269255 7.90825
76 3 10.0002709307 1.0788604993 1.63168
77 3 10.0001809307 2.565749255 3.72343
78 3 12.5756309307 1.0788598859 5.81583
79 3 13.8633209307 1.822269255 7.90825
80 3 12.5756309307 1.0788603747 1.63168
81 3 12.5755409307 2.565739255 3.72383
82 3 13.8632409307 3.309139255 5.81583
83 3 4.8495166902 4.052549255 7.90784
84 3 13.8632409307 3.309139255 1.63168
85 3 3.5617309307 4.796019255 3.72343
86 3 6.1371709307 3.309149255 5.81583
87 3 7.4248709307 4.052539255 7.90825
88 3 6.1371709307 3.309149255 1.63168
89 3 6.1370709307 4.796019255 3.72342
90 3 8.7125309307 3.309149255 5.81583
91 3 10.0002309307 4.052549255 7.90784
92 3 8.7125309307 3.309149255 1.63168
93 3 8.7124409307 4.796019255 3.72343
94 3 11.2878809307 3.309139255 5.81583
95 3 12.5755809307 4.052539255 7.90825
96 3 11.2878809307 3.309139255 1.63168
97 3 11.2877809307 4.796019255 3.72343
98 3 2.2740709307 5.539429255 5.81583
99 3 3.5617809307 6.282839255 7.90825
100 3 12.5754909307 5.539429255 1.63168
101 3 2.2739809307 7.026319255 3.72343
102 3 4.8494246507 5.539429255 5.81583
103 3 6.1371209307 6.282839255 7.90825
104 3 4.8494251637 5.539429255 1.63168
105 3 4.8493323677 7.026309255 3.72383
106 3 7.4247809307 5.539429255 5.81584
107 3 8.7124909307 6.282839255 7.90825
108 3 7.4247809307 5.539429255 1.63168
109 3 7.4246909307 7.026319255 3.72343
110 3 10.0001409307 5.539429255 5.81583
111 3 11.2878309307 6.282839255 7.90825
112 3 10.0001409307 5.539429255 1.63168
113 3 10.0000409307 7.026309255 3.72383
114 3 0.9863209307 7.769709255 5.81584
115 3 2.2740209307 8.513119255 7.90784
116 3 11.2877509307 7.769709255 1.63168
117 3 0.9862409307 9.256589255 3.72343
118 3 3.5616809307 7.769709255 5.81584
119 3 4.8493811327 8.513109255 7.90825
120 3 3.5616809307 7.769709255 1.63168
121 3 3.5615809307 9.256589255 3.72343
122 3 6.1370309307 7.769709255 5.81584
123 3 7.4247409307 8.513119255 7.90784
124 3 6.1370309307 7.769709255 1.63168
125 3 6.1369509307 9.256589255 3.72343
126 3 8.7123909307 7.769709255 5.81584
127 3 10.0000909307 8.513109255 7.90825
128 3 8.7123909307 7.769709255 1.63168
129 3 8.7122909307 9.256589255 3.72343
130 3 4.8495594438 1.0788609171 14.18416
131 3 6.13727 1.82227 16.27657
132 3 4.8494678333 2.56575 12.09175
133 3 7.42492 1.0788606203 14.18416
134 3 8.71261 1.82227 16.27657
135 3 7.42482 2.56574 12.09215
136 3 10.00027 1.0788602287 14.18416
137 3 11.28798 1.82227 16.27657
138 3 10.00018 2.56575 12.09175
139 3 12.57563 1.078860411 14.18416
140 3 13.86332 1.82227 16.27657
141 3 12.57554 2.56574 12.09215
142 3 3.56181 3.30915 14.18416
143 3 4.8495160574 4.05255 16.27617
144 3 13.86324 3.30914 10.0000002145
145 3 3.56173 4.79602 12.09175
146 3 6.13717 3.30914 14.18416
147 3 7.42487 4.05254 16.27657
148 3 6.13717 3.30914 10.0000003865
149 3 6.13707 4.79602 12.09175
150 3 8.71253 3.30914 14.18416
151 3 10.00023 4.05255 16.27617
152 3 8.71244 4.79602 12.09175
153 3 11.28788 3.30915 14.18416
154 3 12.57558 4.05254 16.27657
155 3 11.28778 4.79602 12.09175
156 3 12.57549 5.53943 14.18416
157 3 3.56178 6.28283 16.27657
158 3 12.57549 5.53943 10.0000004094
159 3 2.27398 7.02632 12.09175
160 3 4.849423833 5.53943 14.18416
161 3 6.13712 6.28283 16.27657
162 3 4.849331596 7.02631 12.09215
163 3 7.42478 5.53943 14.18416
164 3 8.71249 6.28284 16.27657
165 3 7.42469 7.02632 12.09175
166 3 10.00014 5.53943 14.18416
167 3 11.28783 6.28283 16.27657
168 3 10.00004 7.02631 12.09215
169 3 11.28775 7.76971 14.18416
170 3 2.27402 8.51311 16.27617
171 3 0.98624 9.25659 12.09175
172 3 3.56168 7.76971 14.18416
173 3 4.849380588 8.51311 16.27657
174 3 3.56158 9.25659 12.09175
175 3 6.13703 7.76971 14.18416
176 3 7.42474 8.51311 16.27617
177 3 6.13695 9.25659 12.09175
178 3 8.71239 7.76971 14.18416
179 3 10.00009 8.51311 16.27657
180 3 8.71229 9.25659 12.09175
181 3 15.15098 1.0788610992 18.36831
182 3 7.42492 1.0788611584 18.36831
183 3 10.00027 1.0788612444 18.36831
184 3 12.57563 1.0788611197 18.36831
185 3 13.86324 3.30914 18.36831
186 3 6.13717 3.30915 18.36831
187 3 8.71253 3.30915 18.36831
188 3 11.28788 3.30914 18.36831
189 3 12.57549 5.53943 18.36831
190 3 4.849424233 5.53943 18.36831
191 3 7.42478 5.53943 18.36831
192 3 10.00014 5.53943 18.36831
193 3 11.28775 7.76971 18.36831
194 3 3.56168 7.76971 18.36831
195 3 6.13703 7.76971 18.36831
196 3 8.71239 7.76971 18.36831
197 3 10.0000009307 10.0000005348 10.0
198 3 2.2739409307 10.0000003014 10.0
199 3 4.8492909307 10.0000000577 9.99999
200 3 7.4246509307 10.0000002052 9.99999
201 3 3.5615409307 12.230289255 10.0
202 3 6.1369009307 12.230289255 10.0
203 3 2.2738009307 14.460569255 9.99999
204 3 4.8491609307 14.460569255 10.0
205 3 6.1367709307 16.690849255 9.99999
206 3 0.9860509307 16.690849255 9.99999
207 3 3.5614109307 16.690849255 9.99999
208 3 10.0000009307 10.0000000421 5.81583
209 3 0.9862909307 10.743409255 7.90825
210 3 10.0000009307 10.0000003541 1.63168
211 3 3.5616309307 10.743409255 7.90825
212 3 2.2739409307 10.0000004133 1.63168
213 3 2.2738409307 11.486879255 3.72383
214 3 6.1370009307 10.743409255 7.90825
215 3 4.8492909307 10.0000004993 1.63168
216 3 4.8492009307 11.486889255 3.72343
217 3 7.4246509307 9.9999998859 5.81583
218 3 8.7123409307 10.743409255 7.90825
219 3 7.4246509307 10.0000003747 1.63168
220 3 7.4245609307 11.486879255 3.72383
221 3 8.7122609307 12.230279255 5.81583
222 3 8.7122609307 12.230279255 1.63168
223 3 0.9861909307 12.230289255 5.81583
224 3 2.2738909307 12.973679255 7.90825
225 3 0.9861909307 12.230289255 1.63168
226 3 0.9860909307 13.717159255 3.72342
227 3 3.5615509307 12.230289255 5.81583
228 3 4.8492509307 12.973689255 7.90784
229 3 3.5615509307 12.230289255 1.63168
230 3 3.5614609307 13.717159255 3.72343
231 3 6.1369009307 12.230279255 5.81583
232 3 7.4246009307 12.973679255 7.90825
233 3 6.1369009307 12.230279255 1.63168
234 3 6.1368009307 13.717159255 3.72343
235 3 7.4245109307 14.460569255 1.63168
236 3 0.9861409307 15.203979255 7.90825
237 3 2.2738009307 14.460569255 5.81584
238 3 3.5615109307 15.203979255 7.90825
239 3 2.2738009307 14.460569255 1.63168
240 3 2.2737109307 15.947459255 3.72343
241 3 4.8491609307 14.460569255 5.81583
242 3 6.1368509307 15.203979255 7.90825
243 3 4.8491609307 14.460569255 1.63168
244 3 4.8490609307 15.947449255 3.72383
245 3 6.1367709307 16.690849255 1.63168
246 3 0.9860509307 16.690849255 5.81584
247 3 2.2737609307 17.434259255 7.90784
248 3 0.9860509307 16.690849255 1.63168
249 3 0.9859709307 18.177729255 3.72343
250 3 3.5614109307 16.690849255 5.81584
251 3 4.8491109307 17.434249255 7.90825
252 3 3.5614109307 16.690849255 1.63168
253 3 3.5613109307 18.177729255 3.72343
254 3 0.98629 10.74341 16.27657
255 3 2.27394 10.0000006203 14.18416
256 3 3.56163 10.74341 16.27657
257 3 2.27384 11.48688 12.09215
258 3 4.84929 10.0000002287 14.18416
259 3 6.137 10.74341 16.27657
260 3 4.8492 11.48689 12.09175
261 3 7.42465 10.000000411 14.18416
262 3 8.71234 10.74341 16.27657
263 3 7.42456 11.48688 12.09215
264 3 8.71226 12.23028 10.0000002145
265 3 0.98619 12.23028 14.18416
266 3 2.27389 12.97368 16.27657
267 3 0.98619 12.23028 10.0000003865
268 3 0.98609 13.71716 12.09175
269 3 3.56155 12.23028 14.18416
270 3 4.84925 12.97369 16.27617
271 3 3.56146 13.71716 12.09175
272 3 6.1369 12.23029 14.18416
273 3 7.4246 12.97368 16.27657
274 3 6.1368 13.71716 12.09175
275 3 7.42451 14.46057 14.18416
276 3 7.42451 14.46057 10.0000004094
277 3 0.98614 15.20397 16.27657
278 3 2.2738 14.46057 14.18416
279 3 3.56151 15.20398 16.27657
280 3 2.27371 15.94746 12.09175
281 3 4.84916 14.46057 14.18416
282 3 6.13685 15.20397 16.27657
283 3 4.84906 15.94745 12.09215
284 3 6.13677 16.69085 14.18416
285 3 0.98605 16.69085 14.18416
286 3 2.27376 17.43425 16.27617
287 3 0.98597 18.17773 12.09175
288 3 3.56141 16.69085 14.18416
289 3 4.84911 17.43425 16.27657
290 3 3.56131 18.17773 12.09175
291 3 10.0 10.0000010991 18.36831
292 3 2.27394 10.0000011584 18.36831
293 3 4.84929 10.0000012444 18.36831
294 3 7.42465 10.0000011197 18.36831
295 3 8.71226 12.23028 18.36831
296 3 0.98619 12.23029 18.36831
297 3 3.56155 12.23029 18.36831
298 3 6.1369 12.23028 18.36831
299 3 7.42451 14.46057 18.36831
300 3 2.2738 14.46057 18.36831
301 3 4.84916 14.46057 18.36831
302 3 6.13677 16.69085 18.36831
303 3 0.98605 16.69085 18.36831
304 3 3.56141 16.69085 18.36831
305 3 4.8490209307 18.9211405348 10.0
306 3 2.2736709307 18.9211402052 9.99999
307 3 4.8490209307 18.9211400421 5.81583
308 3 4.8490209307 18.9211403541 1.63168
309 3 0.9860209307 19.664549255 7.90825
310 3 2.2736709307 18.9211398859 5.81583
311 3 3.5613609307 19.664549255 7.90825
312 3 2.2736709307 18.9211403747 1.63168
313 3 0.98602 19.66455 16.27657
314 3 2.27367 18.921140411 14.18416
315 3 3.56136 19.66455 16.27657
316 3 4.84902 18.9211410991 18.36831
317 3 2.27367 18.9211411197 18.36831
318 3 17.7263309307 1.078859255 5.81583
319 3 16.4386409307 0.335449255 3.72343
320 3 19.0139809307 0.335449255 3.72343
321 3 16.43864 0.33545 12.09175
322 3 19.01398 0.33545 12.09175
323 3 17.7263409307 1.0788603014 10.0
324 3 19.0139409307 3.309149255 10.0
325 3 15.1508444987 5.539429255 10.0
326 3 17.7262009307 5.539429255 9.99999
327 3 13.8631009307 7.769709255 9.99999
328 3 16.4384509307 7.769709255 9.99999
329 3 19.0138109307 7.769709255 9.99999
330 3 16.4386909307 1.822269255 7.90825
331 3 15.1508877097 2.565749255 3.72343
332 3 12.5753509307 9.999999255 5.81583
333 3 19.0140309307 1.822269255 7.90825
334 3 17.7263409307 1.0788604133 1.63168
335 3 17.7262409307 2.565739255 3.72383
336 3 15.1507098107 9.999999255 5.81584
337 3 15.1509366902 4.052549255 7.90784
338 3 13.8631509307 4.796019255 3.72343
339 3 16.4385909307 3.309149255 5.81583
340 3 17.7262909307 4.052539255 7.90825
341 3 16.4385909307 3.309149255 1.63168
342 3 16.4384909307 4.796019255 3.72342
343 3 19.0139509307 3.309149255 5.81583
344 3 19.0139509307 3.309149255 1.63168
345 3 19.0138609307 4.796019255 3.72343
346 3 12.5754909307 5.539429255 5.81583
347 3 13.8632009307 6.282839255 7.90825
348 3 12.5754009307 7.026319255 3.72343
349 3 15.1508446507 5.539429255 5.81583
350 3 16.4385409307 6.282839255 7.90825
351 3 15.1508451637 5.539429255 1.63168
352 3 15.1507523677 7.026309255 3.72383
353 3 17.7262009307 5.539429255 5.81584
354 3 19.0139109307 6.282839255 7.90825
355 3 17.7262009307 5.539429255 1.63168
356 3 17.7261109307 7.026319255 3.72343
357 3 11.2877409307 7.769709255 5.81584
358 3 12.5754409307 8.513119255 7.90784
359 3 11.2876609307 9.256589255 3.72343
360 3 13.8631009307 7.769709255 5.81584
361 3 15.1508011327 8.513109255 7.90825
362 3 13.8631009307 7.769709255 1.63168
363 3 13.8630009307 9.256589255 3.72343
364 3 16.4384509307 7.769709255 5.81584
365 3 17.7261609307 8.513119255 7.90784
366 3 16.4384509307 7.769709255 1.63168
367 3 16.4383709307 9.256589255 3.72343
368 3 19.0138109307 7.769709255 5.81584
369 3 19.0138109307 7.769709255 1.63168
370 3 19.0137109307 9.256589255 3.72343
371 3 15.1509794438 1.0788609171 14.18416
372 3 16.43869 1.82227 16.27657
373 3 15.1508878333 2.56575 12.09175
374 3 17.72634 1.0788606203 14.18416
375 3 19.01403 1.82227 16.27657
376 3 17.72624 2.56574 12.09215
377 3 13.86323 3.30915 14.18416
378 3 15.1509360574 4.05255 16.27617
379 3 13.86315 4.79602 12.09175
380 3 16.43859 3.30914 14.18416
381 3 17.72629 4.05254 16.27657
382 3 16.43859 3.30914 10.0000003865
383 3 16.43849 4.79602 12.09175
384 3 19.01395 3.30914 14.18416
385 3 19.01386 4.79602 12.09175
386 3 13.8632 6.28283 16.27657
387 3 12.5754 7.02632 12.09175
388 3 15.150843833 5.53943 14.18416
389 3 16.43854 6.28283 16.27657
390 3 15.150751596 7.02631 12.09215
391 3 17.7262 5.53943 14.18416
392 3 19.01391 6.28284 16.27657
393 3 17.72611 7.02632 12.09175
394 3 12.57544 8.51311 16.27617
395 3 11.28766 9.25659 12.09175
396 3 13.8631 7.76971 14.18416
397 3 15.150800588 8.51311 16.27657
398 3 13.863 9.25659 12.09175
399 3 16.43845 7.76971 14.18416
400 3 17.72616 8.51311 16.27617
401 3 16.43837 9.25659 12.09175
402 3 19.01381 7.76971 14.18416
403 3 19.01371 9.25659 12.09175
404 3 17.72634 1.0788611584 18.36831
405 3 16.43859 3.30915 18.36831
406 3 19.01395 3.30915 18.36831
407 3 15.150844233 5.53943 18.36831
408 3 17.7262 5.53943 18.36831
409 3 13.8631 7.76971 18.36831
410 3 16.43845 7.76971 18.36831
411 3 19.01381 7.76971 18.36831
412 3 12.5753609307 10.0000003014 10.0
413 3 15.1507109307 10.0000000577 9.99999
414 3 17.7260709307 10.0000002052 9.99999
415 3 13.8629609307 12.230289255 10.0
416 3 16.4383209307 12.230289255 10.0
417 3 9.9998644987 14.460569255 10.0
418 3 12.5752209307 14.460569255 9.99999
419 3 15.1505809307 14.460569255 10.0
420 3 16.4381909307 16.690849255 9.99999
421 3 8.7121209307 16.690849255 9.99999
422 3 11.2874709307 16.690849255 9.99999
423 3 13.8628309307 16.690849255 9.99999
424 3 11.2877109307 10.743409255 7.90825
425 3 9.9999077097 11.486889255 3.72343
426 3 7.4243709307 18.921139255 5.81583
427 3 13.8630509307 10.743409255 7.90825
428 3 12.5753609307 10.0000004133 1.63168
429 3 12.5752609307 11.486879255 3.72383
430 3 9.9997298107 18.921139255 5.81584
431 3 16.4384209307 10.743409255 7.90825
432 3 15.1507109307 10.0000004993 1.63168
433 3 15.1506209307 11.486889255 3.72343
434 3 17.7260709307 9.9999998859 5.81583
435 3 19.0137609307 10.743409255 7.90825
436 3 17.7260709307 10.0000003747 1.63168
437 3 17.7259809307 11.486879255 3.72383
438 3 19.0136809307 12.230279255 5.81583
439 3 9.9999566902 12.973689255 7.90784
440 3 19.0136809307 12.230279255 1.63168
441 3 8.7121709307 13.717159255 3.72343
442 3 11.2876109307 12.230289255 5.81583
443 3 12.5753109307 12.973679255 7.90825
444 3 11.2876109307 12.230289255 1.63168
445 3 11.2875109307 13.717159255 3.72342
446 3 13.8629709307 12.230289255 5.81583
447 3 15.1506709307 12.973689255 7.90784
448 3 13.8629709307 12.230289255 1.63168
449 3 13.8628809307 13.717159255 3.72343
450 3 16.4383209307 12.230279255 5.81583
451 3 17.7260209307 12.973679255 7.90825
452 3 16.4383209307 12.230279255 1.63168
453 3 16.4382209307 13.717159255 3.72343
454 3 7.4245109307 14.460569255 5.81583
455 3 8.7122209307 15.203979255 7.90825
456 3 17.7259309307 14.460569255 1.63168
457 3 7.4244209307 15.947459255 3.72343
458 3 9.9998646507 14.460569255 5.81583
459 3 11.2875609307 15.203979255 7.90825
460 3 9.9998651637 14.460569255 1.63168
461 3 9.9997723677 15.947449255 3.72383
462 3 12.5752209307 14.460569255 5.81584
463 3 13.8629309307 15.203979255 7.90825
464 3 12.5752209307 14.460569255 1.63168
465 3 12.5751309307 15.947459255 3.72343
466 3 15.1505809307 14.460569255 5.81583
467 3 16.4382709307 15.203979255 7.90825
468 3 15.1505809307 14.460569255 1.63168
469 3 15.1504809307 15.947449255 3.72383
470 3 6.1367609307 16.690849255 5.81584
471 3 7.4244609307 17.434259255 7.90784
472 3 16.4381909307 16.690849255 1.63168
473 3 6.1366809307 18.177729255 3.72343
474 3 8.7121209307 16.690849255 5.81584
475 3 9.9998211327 17.434249255 7.90825
476 3 8.7121209307 16.690849255 1.63168
477 3 8.7120209307 18.177729255 3.72343
478 3 11.2874709307 16.690849255 5.81584
479 3 12.5751809307 17.434259255 7.90784
480 3 11.2874709307 16.690849255 1.63168
481 3 11.2873909307 18.177729255 3.72343
482 3 13.8628309307 16.690849255 5.81584
483 3 15.1505309307 17.434249255 7.90825
484 3 13.8628309307 16.690849255 1.63168
485 3 13.8627309307 18.177729255 3.72343
486 3 9.9999994438 10.0000009171 14.18416
487 3 11.28771 10.74341 16.27657
488 3 9.9999078333 11.48689 12.09175
489 3 12.57536 10.0000006203 14.18416
490 3 13.86305 10.74341 16.27657
491 3 12.57526 11.48688 12.09215
492 3 15.15071 10.0000002287 14.18416
493 3 16.43842 10.74341 16.27657
494 3 15.15062 11.48689 12.09175
495 3 17.72607 10.000000411 14.18416
496 3 19.01376 10.74341 16.27657
497 3 17.72598 11.48688 12.09215
498 3 8.71225 12.23029 14.18416
499 3 9.9999560574 12.97369 16.27617
500 3 19.01368 12.23028 10.0000002145
501 3 8.71217 13.71716 12.09175
502 3 11.28761 12.23028 14.18416
503 3 12.57531 12.97368 16.27657
504 3 11.28761 12.23028 10.0000003865
505 3 11.28751 13.71716 12.09175
506 3 13.86297 12.23028 14.18416
507 3 15.15067 12.97369 16.27617
508 3 13.86288 13.71716 12.09175
509 3 16.43832 12.23029 14.18416
510 3 17.72602 12.97368 16.27657
511 3 16.43822 13.71716 12.09175
512 3 17.72593 14.46057 14.18416
513 3 8.71222 15.20397 16.27657
514 3 17.72593 14.46057 10.0000004094
515 3 7.42442 15.94746 12.09175
516 3 9.999863833 14.46057 14.18416
517 3 11.28756 15.20397 16.27657
518 3 9.999771596 15.94745 12.09215
519 3 12.57522 14.46057 14.18416
520 3 13.86293 15.20398 16.27657
521 3 12.57513 15.94746 12.09175
522 3 15.15058 14.46057 14.18416
523 3 16.43827 15.20397 16.27657
524 3 15.15048 15.94745 12.09215
525 3 16.43819 16.69085 14.18416
526 3 7.42446 17.43425 16.27617
527 3 6.13668 18.17773 12.09175
528 3 8.71212 16.69085 14.18416
529 3 9.999820588 17.43425 16.27657
530 3 8.71202 18.17773 12.09175
531 3 11.28747 16.69085 14.18416
532 3 12.57518 17.43425 16.27617
533 3 11.28739 18.17773 12.09175
534 3 13.86283 16.69085 14.18416
535 3 15.15053 17.43425 16.27657
536 3 13.86273 18.17773 12.09175
537 3 12.57536 10.0000011584 18.36831
538 3 15.15071 10.0000012444 18.36831
539 3 17.72607 10.0000011197 18.36831
540 3 19.01368 12.23028 18.36831
541 3 11.28761 12.23029 18.36831
542 3 13.86297 12.23029 18.36831
543 3 16.43832 12.23028 18.36831
544 3 17.72593 14.46057 18.36831
545 3 9.999864233 14.46057 18.36831
546 3 12.57522 14.46057 18.36831
547 3 15.15058 14.46057 18.36831
548 3 16.43819 16.69085 18.36831
549 3 8.71212 16.69085 18.36831
550 3 11.28747 16.69085 18.36831
551 3 13.86283 16.69085 18.36831
552 3 15.1504409307 18.9211405348 10.0
553 3 7.4243809307 18.9211403014 10.0
554 3 9.9997309307 18.9211400577 9.99999
555 3 12.5750909307 18.9211402052 9.99999
556 3 15.1504409307 18.9211400421 5.81583
557 3 6.1367309307 19.664549255 7.90825
558 3 15.1504409307 18.9211403541 1.63168
559 3 8.7120709307 19.664549255 7.90825
560 3 7.4243809307 18.9211404133 1.63168
561 3 11.2874409307 19.664549255 7.90825
562 3 9.9997309307 18.9211404993 1.63168
563 3 12.5750909307 18.9211398859 5.81583
564 3 13.8627809307 19.664549255 7.90825
565 3 12.5750909307 18.9211403747 1.63168
566 3 4.8490194438 18.9211409171 14.18416
567 3 6.13673 19.66455 16.27657
568 3 7.42438 18.9211406203 14.18416
569 3 8.71207 19.66455 16.27657
570 3 9.99973 18.9211402287 14.18416
571 3 11.28744 19.66455 16.27657
572 3 12.57509 18.921140411 14.18416
573 3 13.86278 19.66455 16.27657
574 3 15.15044 18.9211410991 18.36831
575 3 7.42438 18.9211411584 18.36831
576 3 9.99973 18.9211412444 18.36831
577 3 12.57509 18.9211411197 18.36831
578 3 19.0135409307 16.690849255 9.99999
579 3 17.7257909307 18.921139255 5.81583
580 3 19.0135909307 13.717159255 3.72343
581 3 17.7259309307 14.460569255 5.81583
582 3 19.0136409307 15.203979255 7.90825
583 3 17.7258409307 15.947459255 3.72343
584 3 16.4381809307 16.690849255 5.81584
585 3 17.7258809307 17.434259255 7.90784
586 3 16.4381009307 18.177729255 3.72343
587 3 19.0135409307 16.690849255 5.81584
588 3 19.0135409307 16.690849255 1.63168
589 3 19.0134409307 18.177729255 3.72343
590 3 19.01367 12.23029 14.18416
591 3 19.01359 13.71716 12.09175
592 3 19.01364 15.20397 16.27657
593 3 17.72584 15.94746 12.09175
594 3 17.72588 17.43425 16.27617
595 3 16.4381 18.17773 12.09175
596 3 19.01354 16.69085 14.18416
597 3 19.01344 18.17773 12.09175
598 3 19.01354 16.69085 18.36831
599 3 17.7258009307 18.9211403014 10.0
600 3 16.4381509307 19.664549255 7.90825
601 3 19.0134909307 19.664549255 7.90825
602 3 17.7258009307 18.9211404133 1.63168
603 3 15.1504394438 18.9211409171 14.18416
604 3 16.43815 19.66455 16.27657
605 3 17.7258 18.9211406203 14.18416
606 3 19.01349 19.66455 16.27657
607 3 17.7258 18.9211411584 18.36831
