# LAMMPS data file written by OVITO Basic 3.7.10
58 atoms
4 atom types
0.0 10.0 xlo xhi
0.0 10.0 ylo yhi
0.0 10.0 zlo zhi

Masses

1 26.981538  # Al
2 44.95591  # Sc
3 63.546  # Cu
4 1.00794  # H

Atoms  # atomic

1 1 2.1961081616 1.2679227712 3.586214847
2 2 2.1961058154 1.2679236658 8.9655281862
3 3 2.1961096938 1.2679216105 6.2758681878
4 3 4.3922221559 2.5358458973 9.8620830554
5 1 6.5883493143 8.8754561791 3.5862338582
6 1 4.3922173992 2.535846808 7.1724277685
7 1 6.5883385947 6.3396139574 7.1724365559
8 1 2.1961351801 6.3396036566 7.1724320645
9 2 2.1961313636 6.3396070201 1.7931187946
10 2 2.1961272918 3.8037641194 5.3793326374
11 2 4.3922423717 7.6075293084 5.3793450607
12 2 4.3922243461 5.0716924394 8.9655384603
13 2 2.1961460634 8.8754463053 8.9655466677
14 2 6.5883469681 8.8754570737 8.9655471974
15 3 2.1961245346 3.8037638971 2.6896650487
16 3 4.3922433248 7.6075320498 2.6896756628
17 3 4.3922338016 5.0716885725 6.2758809124
18 3 2.196148078 8.875448861 6.2758810134
19 3 2.1961347466 6.3396043501 4.4827705027
20 3 6.5883508465 8.8754550184 6.275887199
21 3 2.1961370905 6.3396039345 9.8620837055
22 3 2.1961210001 3.8037615045 8.0689773095
23 3 6.5883404414 6.3396105478 9.8620922226
24 3 4.3922477073 7.6075310314 8.068990307
25 1 2.1961476856 8.8754516925 3.5862237097
26 3 2.1961479255 8.8754513707 0.8965720561
27 1 6.5883136307 1.2679302457 3.5862212144
28 1 8.7844245895 2.5358527619 7.172435877
29 2 4.3922123881 2.071114392e-06 5.3793194821
30 2 8.7844037854 1.4619314342e-05 5.3793275513
31 2 6.5883146445 1.2679283092 8.9655253961
32 3 4.3922026028 5.444462797e-06 2.689664532
33 3 8.7844076473 1.4341600919e-05 2.6896715797
34 3 6.5883133582 1.2679315022 6.2758752562
35 3 4.3922054343 3.9638784948e-06 8.0689760436
36 3 8.7844216218 2.5358532264 9.8620911476
37 3 8.7844110676 1.071307829e-05 8.0689834949
38 1 4.3922306636 5.0716906791 3.5862220837
39 1 8.7844341999 5.0716967001 3.5862294161
40 2 4.3922320993 2.5358404361 1.7931143325
41 2 8.7844158264 2.535856317 1.7931151869
42 2 6.5883508723 6.3396070322 1.7931264311
43 2 6.5883300152 3.803768687 5.3793291022
44 2 8.7844535408 7.607535479 5.3793384933
45 2 8.7844357223 5.0716951032 8.9655339931
46 3 2.1961055852 1.2679236529 0.8965593072
47 3 6.5883254008 3.8037749942 2.6896744099
48 3 6.5883134079 1.2679292144 0.8965653871
49 3 4.3922278598 5.0716935166 0.8965701252
50 3 8.7844437555 7.6075388524 2.6896835432
51 3 8.7844335176 5.0716987421 0.8965726814
52 3 4.3922153863 2.5358464721 4.4827709761
53 3 8.7844329452 5.0716958412 6.2758848276
54 3 8.7844229757 2.535852347 4.4827768603
55 3 6.5883361704 6.3396173241 4.4827818991
56 3 6.5883266294 3.8037712235 8.0689875568
57 3 8.784446587 7.6075373718 8.0689950549
58 3 6.5883467379 8.8754570609 0.8965783184
