# LAMMPS data file written by OVITO Basic 3.7.11
80 atoms
4 atom types
0.0 12.67043 xlo xhi
0.0 12.67042 ylo yhi
0.0 6.33521 zlo zhi
2.45723e-05 1.08756e-05 -9.2439e-06 xy xz yz

Masses

1 26.98154  # Al
2 44.95591  # Sc
3 63.546  # Cu
4 1.00794  # H

Atoms  # atomic

1 1 2.78696 5.95454 3.54826
2 1 5.95458 3.54826 2.78694
3 1 3.54829 2.78693 5.95455
4 1 0.38067 0.38066 0.38066
5 3 5.12651 1.95889 1.20871
6 3 1.95891 1.2087 5.1265
7 3 1.20871 5.1265 1.9589
8 3 4.37633 4.3763 4.37631
9 3 0.30239 5.54627 4.44298
10 3 1.89225 3.46998 3.95656
11 3 2.37869 5.05983 6.03284
12 3 3.46999 3.95654 1.89224
13 3 5.05986 6.03283 2.37868
14 3 5.54628 4.44297 0.30238
15 3 6.03284 2.37864 5.05984
16 3 4.44299 0.30237 5.54626
17 3 3.95657 1.89223 3.46999
18 3 2.86523 0.78894 1.27537
19 3 1.27538 2.86523 0.78893
20 3 0.78894 1.27536 2.86523
21 1 2.78697 12.28974 3.54826
22 1 5.95459 9.88347 2.78694
23 1 3.5483 9.12214 5.95455
24 1 0.38068 6.71587 0.38066
25 3 5.12652 8.2941 1.20871
26 3 1.95893 7.54391 5.1265
27 3 1.20873 11.46171 1.9589
28 3 4.37635 10.71151 4.37631
29 3 0.3024 11.88148 4.44298
30 3 1.89226 9.80518 3.95656
31 3 2.3787 11.39504 6.03284
32 3 3.47 10.29175 1.89224
33 3 5.05987 12.36804 2.37868
34 3 5.54629 10.77818 0.30238
35 3 6.03286 8.71385 5.05984
36 3 4.44301 6.63758 5.54626
37 3 3.95658 8.22744 3.46999
38 3 2.86525 7.12415 1.27537
39 3 1.27539 9.20044 0.78893
40 3 0.78895 7.61057 2.86523
41 1 9.12218 5.95454 3.54826
42 1 12.28979 3.54826 2.78694
43 1 9.88351 2.78693 5.95455
44 1 6.71589 0.38066 0.38066
45 3 11.46172 1.95889 1.20871
46 3 8.29413 1.2087 5.1265
47 3 7.54393 5.1265 1.9589
48 3 10.71155 4.3763 4.37631
49 3 6.63761 5.54627 4.44298
50 3 8.22746 3.46998 3.95656
51 3 8.7139 5.05983 6.03284
52 3 9.8052 3.95654 1.89224
53 3 11.39507 6.03283 2.37868
54 3 11.88149 4.44297 0.30238
55 3 12.36806 2.37864 5.05984
56 3 10.77821 0.30237 5.54626
57 3 10.29178 1.89223 3.46999
58 3 9.20045 0.78894 1.27537
59 3 7.61059 2.86523 0.78893
60 3 7.12416 1.27536 2.86523
61 1 9.12219 12.28974 3.54826
62 1 12.2898 9.88347 2.78694
63 1 9.88352 9.12214 5.95455
64 1 6.7159 6.71587 0.38066
65 3 11.46173 8.2941 1.20871
66 3 8.29414 7.54391 5.1265
67 3 7.54394 11.46171 1.9589
68 3 10.71156 10.71151 4.37631
69 3 6.63762 11.88148 4.44298
70 3 8.22747 9.80518 3.95656
71 3 8.71392 11.39504 6.03284
72 3 9.80522 10.29175 1.89224
73 3 11.39509 12.36804 2.37868
74 3 11.8815 10.77818 0.30238
75 3 12.36807 8.71385 5.05984
76 3 10.77822 6.63758 5.54626
77 3 10.2918 8.22744 3.46999
78 3 9.20046 7.12415 1.27537
79 3 7.6106 9.20044 0.78893
80 3 7.12417 7.61057 2.86523
