# LAMMPS data file written by OVITO Basic 3.7.10
4287 atoms
4 atom types
-0.5 40.0 xlo xhi
-20.0 20.0 ylo yhi
-20.0 20.0 zlo zhi

Masses

1 26.98154  # Al
2 44.95591  # Sc
3 63.546  # Cu
4 1.00794  # H

Atoms  # atomic

1 1 1.33557e-04 -19.15112 -18.41083
2 1 6.55688e-05 -16.7572 -16.9169
3 1 8.09055e-05 -14.36333 -15.14046
4 1 1.22559e-04 -19.15112 -13.36401
5 1 2.07327 -17.95416 -15.14046
6 1 5.90306e-05 -16.7572 -11.87008
7 3 1.27003e-04 -19.15112 -15.94396
8 3 7.42572e-05 -16.75721 -19.38379
9 3 1.18283e-04 -19.15112 -10.89713
10 3 6.39891e-05 -16.7572 -14.33696
11 1 4.14648 -19.15112 -18.41083
12 1 8.29282 -19.15112 -18.41083
13 1 2.07329 -15.56029 -18.41083
14 1 4.14642 -16.7572 -16.9169
15 1 6.21964 -15.56029 -18.41083
16 1 8.29276 -16.7572 -16.9169
17 1 8.29277 -14.36333 -15.14046
18 1 4.14647 -19.15112 -13.36401
19 1 8.29281 -19.15112 -13.36401
20 1 10.36596 -17.95416 -15.14046
21 1 2.07328 -15.56029 -13.36401
22 1 4.1464 -16.7572 -11.87008
23 1 6.21961 -17.95416 -15.14046
24 1 6.21963 -15.56029 -13.36402
25 1 8.29275 -16.7572 -11.87008
26 3 4.14647 -19.15112 -15.94395
27 3 8.29282 -19.15112 -15.94396
28 3 2.07329 -15.56029 -15.94395
29 3 4.14642 -16.75721 -19.38379
30 3 6.21963 -15.56029 -15.94395
31 3 8.29276 -16.75721 -19.38379
32 3 4.14646 -19.15111 -10.89713
33 3 8.29281 -19.15112 -10.89713
34 3 2.07328 -15.56028 -10.89713
35 3 4.14641 -16.7572 -14.33696
36 3 6.21962 -15.56028 -10.89713
37 3 8.29275 -16.7572 -14.33696
38 1 1.152e-04 -19.15111 -8.31719
39 1 4.72112e-05 -16.75719 -6.82326
40 1 6.25479e-05 -14.36332 -5.04682
41 1 1.04201e-04 -19.15111 -3.27037
42 1 2.07325 -17.95415 -5.04682
43 1 4.0673e-05 -16.75719 -1.77644
44 3 1.08645e-04 -19.15111 -5.85032
45 3 5.58996e-05 -16.7572 -9.29015
46 3 9.99259e-05 -19.15111 -0.80349
47 3 4.56315e-05 -16.75719 -4.24332
48 1 4.14646 -19.15111 -8.31719
49 1 8.2928 -19.15111 -8.31719
50 1 2.07326 -17.95416 -10.09364
51 1 2.07327 -15.56028 -8.31719
52 1 4.1464 -16.75719 -6.82326
53 1 6.2196 -17.95416 -10.09364
54 1 6.21962 -15.56028 -8.31719
55 1 8.29274 -16.75719 -6.82326
56 1 8.29275 -14.36332 -5.04682
57 1 4.14645 -19.15111 -3.27037
58 1 8.29279 -19.15111 -3.27037
59 1 10.36594 -17.95415 -5.04682
60 1 2.07326 -15.56028 -3.27037
61 1 4.14638 -16.75719 -1.77644
62 1 6.21959 -17.95415 -5.04682
63 1 6.21961 -15.56028 -3.27038
64 1 8.29273 -16.75719 -1.77644
65 3 4.14645 -19.15111 -5.85031
66 3 8.2928 -19.15111 -5.85032
67 3 2.07327 -15.56028 -5.85031
68 3 4.1464 -16.7572 -9.29015
69 3 6.21961 -15.56028 -5.85031
70 3 8.29274 -16.7572 -9.29015
71 3 4.14644 -19.1511 -0.80349
72 3 8.29279 -19.15111 -0.80349
73 3 2.07326 -15.56027 -0.80349
74 3 4.14639 -16.75719 -4.24332
75 3 6.2196 -15.56027 -0.80349
76 3 8.29273 -16.75719 -4.24332
77 1 9.68422e-05 -19.1511 1.77645
78 1 2.88536e-05 -16.75718 3.27038
79 1 4.41903e-05 -14.36331 5.04682
80 1 8.58434e-05 -19.1511 6.82327
81 1 2.07323 -17.95414 5.04682
82 1 2.23154e-05 -16.75718 8.3172
83 3 9.02879e-05 -19.1511 4.24332
84 3 3.7542e-05 -16.75719 0.80349
85 3 8.15683e-05 -19.1511 9.29015
86 3 2.72739e-05 -16.75718 5.85032
87 1 4.14644 -19.1511 1.77645
88 1 8.29278 -19.1511 1.77645
89 1 2.07324 -17.95415 5.55006e-08
90 1 2.07325 -15.56027 1.77645
91 1 4.14638 -16.75718 3.27038
92 1 6.21958 -17.95415 6.50898e-07
93 1 6.2196 -15.56027 1.77645
94 1 8.29272 -16.75718 3.27038
95 1 8.29273 -14.36331 5.04682
96 1 4.14643 -19.1511 6.82327
97 1 8.29277 -19.1511 6.82327
98 1 10.36592 -17.95414 5.04682
99 1 2.07324 -15.56027 6.82327
100 1 4.14636 -16.75718 8.3172
101 1 6.21957 -17.95414 5.04682
102 1 6.21959 -15.56027 6.82326
103 1 8.29271 -16.75718 8.3172
104 3 4.14643 -19.1511 4.24333
105 3 8.29278 -19.1511 4.24332
106 3 2.07325 -15.56027 4.24333
107 3 4.14638 -16.75719 0.80349
108 3 6.21959 -15.56027 4.24333
109 3 8.29272 -16.75719 0.80349
110 3 4.14642 -19.15109 9.29015
111 3 8.29277 -19.1511 9.29015
112 3 2.07324 -15.56026 9.29015
113 3 4.14637 -16.75718 5.85032
114 3 6.21958 -15.56026 9.29015
115 3 8.29271 -16.75718 5.85032
116 1 7.84846e-05 -19.15109 11.87009
117 1 1.0496e-05 -16.75717 13.36402
118 1 2.58327e-05 -14.3633 15.14046
119 1 6.74858e-05 -19.15109 16.91691
120 1 2.07321 -17.95413 15.14046
121 1 3.9578e-06 -16.75717 18.41084
122 3 7.19303e-05 -19.15109 14.33696
123 3 1.91844e-05 -16.75718 10.89713
124 3 6.32107e-05 -19.15109 19.38379
125 3 8.9163e-06 -16.75717 15.94396
126 1 4.14642 -19.15109 11.87009
127 1 8.29276 -19.15109 11.87009
128 1 2.07322 -17.95414 10.09364
129 1 2.07323 -15.56026 11.87009
130 1 4.14636 -16.75717 13.36402
131 1 6.21956 -17.95414 10.09364
132 1 6.21958 -15.56026 11.87009
133 1 8.2927 -16.75717 13.36402
134 1 8.29271 -14.3633 15.14046
135 1 4.14641 -19.15109 16.91691
136 1 8.29275 -19.15109 16.91691
137 1 10.3659 -17.95413 15.14046
138 1 2.07322 -15.56026 16.91691
139 1 4.14634 -16.75717 18.41084
140 1 6.21955 -17.95413 15.14046
141 1 6.21957 -15.56026 16.9169
142 1 8.29269 -16.75717 18.41084
143 3 4.14641 -19.15109 14.33697
144 3 8.29276 -19.15109 14.33696
145 3 2.07323 -15.56026 14.33697
146 3 4.14636 -16.75718 10.89713
147 3 6.21957 -15.56026 14.33697
148 3 8.2927 -16.75718 10.89713
149 3 4.1464 -19.15108 19.38379
150 3 8.29275 -19.15109 19.38379
151 3 2.07322 -15.56025 19.38379
152 3 4.14635 -16.75717 15.94396
153 3 6.21956 -15.56025 19.38379
154 3 8.29269 -16.75717 15.94396
155 1 1.06715e-04 -11.96947 -18.41083
156 1 2.07323 -13.16638 -16.9169
157 1 4.14645 -11.96947 -18.41083
158 1 6.21957 -13.16638 -16.9169
159 1 4.67152e-05 -9.57554 -16.9169
160 1 2.07327 -8.37864 -18.41083
161 1 4.14639 -9.57555 -16.9169
162 1 4.1464 -7.18167 -15.14046
163 1 9.67152e-05 -11.96946 -13.36401
164 1 2.07322 -13.16637 -11.87009
165 1 4.14643 -14.36334 -15.14046
166 1 4.14644 -11.96946 -13.36401
167 1 6.21957 -13.16637 -11.87008
168 1 6.21959 -10.7725 -15.14046
169 1 3.67152e-05 -9.57554 -11.87008
170 1 2.07325 -10.7725 -15.14046
171 1 2.07326 -8.37863 -13.36402
172 1 4.14638 -9.57554 -11.87008
173 3 9.67152e-05 -11.96946 -15.94395
174 3 2.07324 -13.16638 -19.38378
175 3 4.14645 -11.96946 -15.94396
176 3 6.21958 -13.16638 -19.38378
177 3 4.67152e-05 -9.57555 -19.38379
178 3 2.07326 -8.37863 -15.94395
179 3 4.1464 -9.57555 -19.38379
180 3 9.67152e-05 -11.96946 -10.89713
181 3 2.07323 -13.16638 -14.33696
182 3 4.14644 -11.96946 -10.89713
183 3 6.21957 -13.16638 -14.33696
184 3 3.67152e-05 -9.57554 -14.33696
185 3 2.07325 -8.37862 -10.89713
186 3 4.14638 -9.57554 -14.33696
187 1 7.67152e-05 -4.7878 -18.41083
188 1 2.0732 -5.98472 -16.9169
189 1 1.67152e-05 -2.39388 -16.9169
190 1 2.67152e-05 -1.28248e-05 -15.14046
191 1 5.67152e-05 -7.18167 -15.14046
192 1 6.67152e-05 -4.7878 -13.36401
193 1 2.07319 -5.98471 -11.87008
194 1 2.07322 -3.59084 -15.14046
195 1 6.7152e-06 -2.39388 -11.87008
196 3 7.67152e-05 -4.7878 -15.94396
197 3 2.07321 -5.98472 -19.38378
198 3 1.67152e-05 -2.39389 -19.38379
199 3 6.67152e-05 -4.7878 -10.89713
200 3 2.0732 -5.98471 -14.33696
201 3 6.7152e-06 -2.39388 -14.33696
202 1 7.83576e-05 -14.36333 -10.09364
203 1 8.83576e-05 -11.96946 -8.31719
204 1 2.07321 -13.16637 -6.82326
205 1 4.14642 -14.36333 -10.09364
206 1 4.14643 -11.96946 -8.31719
207 1 6.21955 -13.16637 -6.82326
208 1 2.83576e-05 -9.57553 -6.82326
209 1 2.07323 -10.7725 -10.09364
210 1 2.07325 -8.37863 -8.31719
211 1 4.14637 -9.57554 -6.82326
212 1 4.14638 -7.18166 -5.04682
213 1 7.83576e-05 -11.96945 -3.27037
214 1 2.0732 -13.16636 -1.77645
215 1 4.14641 -14.36333 -5.04682
216 1 4.14642 -11.96945 -3.27037
217 1 6.21955 -13.16636 -1.77644
218 1 6.21957 -10.77249 -5.04682
219 1 1.83576e-05 -9.57553 -1.77644
220 1 2.07323 -10.77249 -5.04682
221 1 2.07324 -8.37862 -3.27038
222 1 4.14636 -9.57553 -1.77644
223 3 7.83576e-05 -11.96945 -5.85031
224 3 2.07322 -13.16637 -9.29014
225 3 4.14643 -11.96945 -5.85032
226 3 6.21956 -13.16637 -9.29014
227 3 2.83576e-05 -9.57554 -9.29015
228 3 2.07324 -8.37862 -5.85031
229 3 4.14638 -9.57554 -9.29015
230 3 7.83576e-05 -11.96945 -0.80349
231 3 2.07321 -13.16637 -4.24332
232 3 4.14642 -11.96945 -0.80349
233 3 6.21955 -13.16637 -4.24332
234 3 1.83576e-05 -9.57553 -4.24332
235 3 2.07323 -8.37861 -0.80349
236 3 4.14636 -9.57553 -4.24332
237 1 4.83576e-05 -7.18167 -10.09364
238 1 5.83576e-05 -4.78779 -8.31719
239 1 2.07318 -5.98471 -6.82326
240 1 -1.6424e-06 -2.39387 -6.82326
241 1 8.3576e-06 -1.4124e-06 -5.04682
242 1 3.83576e-05 -7.18166 -5.04682
243 1 4.83576e-05 -4.78779 -3.27037
244 1 2.07317 -5.9847 -1.77644
245 1 2.0732 -3.59083 -5.04682
246 1 -1.16424e-05 -2.39387 -1.77644
247 3 5.83576e-05 -4.78779 -5.85032
248 3 2.07319 -5.98471 -9.29014
249 3 -1.6424e-06 -2.39388 -9.29015
250 3 4.83576e-05 -4.78779 -0.80349
251 3 2.07318 -5.9847 -4.24332
252 3 -1.16424e-05 -2.39387 -4.24332
253 1 6.00000000000e-05 -14.36332 4.29331e-08
254 1 7.00000000000e-05 -11.96945 1.77645
255 1 2.07319 -13.16636 3.27038
256 1 4.1464 -14.36332 1.03144e-06
257 1 4.14641 -11.96945 1.77645
258 1 6.21953 -13.16636 3.27038
259 1 1.0e-05 -9.57552 3.27038
260 1 2.07321 -10.77249 6.50898e-07
261 1 2.07323 -8.37862 1.77645
262 1 4.14635 -9.57553 3.27038
263 1 4.14636 -7.18165 5.04682
264 1 6.00000000000e-05 -11.96944 6.82327
265 1 2.07318 -13.16635 8.31719
266 1 4.14639 -14.36332 5.04682
267 1 4.1464 -11.96944 6.82327
268 1 6.21953 -13.16635 8.3172
269 1 6.21955 -10.77248 5.04682
270 1 0.0 -9.57552 8.3172
271 1 2.07321 -10.77248 5.04682
272 1 2.07322 -8.37861 6.82326
273 1 4.14634 -9.57552 8.3172
274 3 6.00000000000e-05 -11.96944 4.24333
275 3 2.0732 -13.16636 0.8035
276 3 4.14641 -11.96944 4.24332
277 3 6.21954 -13.16636 0.8035
278 3 1.0e-05 -9.57553 0.80349
279 3 2.07322 -8.37861 4.24333
280 3 4.14636 -9.57553 0.80349
281 3 6.00000000000e-05 -11.96944 9.29015
282 3 2.07319 -13.16636 5.85032
283 3 4.1464 -11.96944 9.29015
284 3 6.21953 -13.16636 5.85032
285 3 0.0 -9.57552 5.85032
286 3 2.07321 -8.3786 9.29015
287 3 4.14634 -9.57552 5.85032
288 1 3.00000000000e-05 -7.18166 1.03144e-06
289 1 4.00000000000e-05 -4.78778 1.77645
290 1 2.07316 -5.9847 3.27038
291 1 -2.00000000000e-05 -2.39386 3.27038
292 1 -1.0e-05 1.0e-05 5.04682
293 1 2.00000000000e-05 -7.18165 5.04682
294 1 3.00000000000e-05 -4.78778 6.82327
295 1 2.07315 -5.98469 8.3172
296 1 2.07318 -3.59082 5.04682
297 1 -3.00000000000e-05 -2.39386 8.3172
298 3 4.00000000000e-05 -4.78778 4.24332
299 3 2.07317 -5.9847 0.8035
300 3 -2.00000000000e-05 -2.39387 0.80349
301 3 3.00000000000e-05 -4.78778 9.29015
302 3 2.07316 -5.98469 5.85032
303 3 -3.00000000000e-05 -2.39386 5.85032
304 1 4.16424e-05 -14.36331 10.09364
305 1 5.16424e-05 -11.96944 11.87009
306 1 2.07317 -13.16635 13.36402
307 1 4.14638 -14.36331 10.09364
308 1 4.14639 -11.96944 11.87009
309 1 6.21951 -13.16635 13.36402
310 1 -8.3576e-06 -9.57551 13.36402
311 1 2.07319 -10.77248 10.09364
312 1 2.07321 -8.37861 11.87009
313 1 4.14633 -9.57552 13.36402
314 1 4.14634 -7.18164 15.14046
315 1 4.16424e-05 -11.96943 16.91691
316 1 2.07316 -13.16634 18.41083
317 1 4.14637 -14.3633 15.14046
318 1 4.14638 -11.96943 16.91691
319 1 6.21951 -13.16634 18.41084
320 1 6.21953 -10.77247 15.14046
321 1 -1.83576e-05 -9.57551 18.41084
322 1 2.07319 -10.77247 15.14046
323 1 2.0732 -8.3786 16.9169
324 1 4.14632 -9.57551 18.41084
325 3 4.16424e-05 -11.96943 14.33697
326 3 2.07318 -13.16635 10.89714
327 3 4.14639 -11.96943 14.33696
328 3 6.21952 -13.16635 10.89714
329 3 -8.3576e-06 -9.57552 10.89713
330 3 2.0732 -8.3786 14.33697
331 3 4.14634 -9.57552 10.89713
332 3 4.16424e-05 -11.96943 19.38379
333 3 2.07317 -13.16635 15.94396
334 3 4.14638 -11.96943 19.38379
335 3 6.21951 -13.16635 15.94396
336 3 -1.83576e-05 -9.57551 15.94396
337 3 2.07319 -8.37859 19.38379
338 3 4.14632 -9.57551 15.94396
339 1 1.16424e-05 -7.18165 10.09364
340 1 2.16424e-05 -4.78777 11.87009
341 1 2.07314 -5.98469 13.36402
342 1 -3.83576e-05 -2.39385 13.36402
343 1 -2.83576e-05 2.14124e-05 15.14046
344 1 1.6424e-06 -7.18164 15.14046
345 1 1.16424e-05 -4.78777 16.91691
346 1 2.07313 -5.98468 18.41084
347 1 2.07316 -3.59081 15.14046
348 1 -4.83576e-05 -2.39385 18.41084
349 3 2.16424e-05 -4.78777 14.33696
350 3 2.07315 -5.98469 10.89714
351 3 -3.83576e-05 -2.39386 10.89713
352 3 1.16424e-05 -4.78777 19.38379
353 3 2.07314 -5.98468 15.94396
354 3 -4.83576e-05 -2.39385 15.94396
355 1 12.43916 -19.15112 -18.41083
356 1 16.5855 -19.15112 -18.41083
357 1 10.36598 -15.56029 -18.41083
358 1 12.4391 -16.7572 -16.9169
359 1 14.51232 -15.56029 -18.41083
360 1 16.58544 -16.7572 -16.9169
361 1 16.58545 -14.36333 -15.14046
362 1 12.43916 -19.15112 -13.36401
363 1 16.58549 -19.15112 -13.36401
364 1 18.65864 -17.95416 -15.14046
365 1 10.36597 -15.56029 -13.36401
366 1 12.43909 -16.7572 -11.87008
367 1 14.5123 -17.95416 -15.14046
368 1 14.51231 -15.56029 -13.36402
369 1 16.58543 -16.7572 -11.87008
370 3 12.43916 -19.15112 -15.94395
371 3 16.5855 -19.15112 -15.94396
372 3 10.36597 -15.56029 -15.94395
373 3 12.4391 -16.75721 -19.38379
374 3 14.51231 -15.56029 -15.94395
375 3 16.58544 -16.75721 -19.38379
376 3 12.43915 -19.15111 -10.89713
377 3 16.58549 -19.15112 -10.89713
378 3 10.36596 -15.56028 -10.89713
379 3 12.4391 -16.7572 -14.33696
380 3 14.5123 -15.56028 -10.89713
381 3 16.58543 -16.7572 -14.33696
382 1 20.73185 -19.15112 -18.41083
383 1 24.87819 -19.15112 -18.41083
384 1 18.65866 -15.56029 -18.41083
385 1 20.73179 -16.7572 -16.9169
386 1 22.80501 -15.56029 -18.41083
387 1 24.87813 -16.7572 -16.9169
388 1 24.87814 -14.36333 -15.14046
389 1 20.73184 -19.15112 -13.36401
390 1 24.87818 -19.15112 -13.36401
391 1 26.95133 -17.95416 -15.14046
392 1 18.65865 -15.56029 -13.36401
393 1 20.73177 -16.7572 -11.87008
394 1 22.80498 -17.95416 -15.14046
395 1 22.805 -15.56029 -13.36402
396 1 24.87812 -16.7572 -11.87008
397 3 20.73184 -19.15112 -15.94395
398 3 24.87819 -19.15112 -15.94396
399 3 18.65866 -15.56029 -15.94395
400 3 20.73179 -16.75721 -19.38379
401 3 22.805 -15.56029 -15.94395
402 3 24.87813 -16.75721 -19.38379
403 3 20.73183 -19.15111 -10.89713
404 3 24.87818 -19.15112 -10.89713
405 3 18.65865 -15.56028 -10.89713
406 3 20.73178 -16.7572 -14.33696
407 3 22.80499 -15.56028 -10.89713
408 3 24.87812 -16.7572 -14.33696
409 1 12.43914 -19.15111 -8.31719
410 1 16.58549 -19.15111 -8.31719
411 1 10.36594 -17.95416 -10.09364
412 1 10.36596 -15.56028 -8.31719
413 1 12.43908 -16.75719 -6.82326
414 1 14.51229 -17.95416 -10.09364
415 1 14.5123 -15.56028 -8.31719
416 1 16.58542 -16.75719 -6.82326
417 1 16.58543 -14.36332 -5.04682
418 1 12.43914 -19.15111 -3.27037
419 1 16.58547 -19.15111 -3.27037
420 1 18.65862 -17.95415 -5.04682
421 1 10.36595 -15.56028 -3.27037
422 1 12.43907 -16.75719 -1.77644
423 1 14.51228 -17.95415 -5.04682
424 1 14.51229 -15.56028 -3.27038
425 1 16.58541 -16.75719 -1.77644
426 3 12.43914 -19.15111 -5.85031
427 3 16.58548 -19.15111 -5.85032
428 3 10.36595 -15.56028 -5.85031
429 3 12.43908 -16.7572 -9.29015
430 3 14.51229 -15.56028 -5.85031
431 3 16.58543 -16.7572 -9.29015
432 3 12.43913 -19.1511 -0.80349
433 3 16.58547 -19.15111 -0.80349
434 3 10.36594 -15.56027 -0.80349
435 3 12.43908 -16.75719 -4.24332
436 3 14.51228 -15.56027 -0.80349
437 3 16.58542 -16.75719 -4.24332
438 1 20.73183 -19.15111 -8.31719
439 1 24.87817 -19.15111 -8.31719
440 1 18.65863 -17.95416 -10.09364
441 1 18.65864 -15.56028 -8.31719
442 1 20.73177 -16.75719 -6.82326
443 1 22.80497 -17.95416 -10.09364
444 1 22.80499 -15.56028 -8.31719
445 1 24.87811 -16.75719 -6.82326
446 1 24.87812 -14.36332 -5.04682
447 1 20.73182 -19.15111 -3.27037
448 1 24.87816 -19.15111 -3.27037
449 1 26.95131 -17.95415 -5.04682
450 1 18.65863 -15.56028 -3.27037
451 1 20.73175 -16.75719 -1.77644
452 1 22.80496 -17.95415 -5.04682
453 1 22.80498 -15.56028 -3.27038
454 1 24.8781 -16.75719 -1.77644
455 3 20.73182 -19.15111 -5.85031
456 3 24.87817 -19.15111 -5.85032
457 3 18.65864 -15.56028 -5.85031
458 3 20.73177 -16.7572 -9.29015
459 3 22.80498 -15.56028 -5.85031
460 3 24.87811 -16.7572 -9.29015
461 3 20.73181 -19.1511 -0.80349
462 3 24.87816 -19.15111 -0.80349
463 3 18.65863 -15.56027 -0.80349
464 3 20.73176 -16.75719 -4.24332
465 3 22.80497 -15.56027 -0.80349
466 3 24.8781 -16.75719 -4.24332
467 1 12.43912 -19.1511 1.77645
468 1 16.58547 -19.1511 1.77645
469 1 10.36592 -17.95415 5.55006e-08
470 1 10.36594 -15.56027 1.77645
471 1 12.43906 -16.75718 3.27038
472 1 14.51227 -17.95415 6.50898e-07
473 1 14.51228 -15.56027 1.77645
474 1 16.5854 -16.75718 3.27038
475 1 16.58541 -14.36331 5.04682
476 1 12.43912 -19.1511 6.82327
477 1 16.58546 -19.1511 6.82327
478 1 18.6586 -17.95414 5.04682
479 1 10.36593 -15.56027 6.82327
480 1 12.43905 -16.75718 8.3172
481 1 14.51226 -17.95414 5.04682
482 1 14.51227 -15.56027 6.82326
483 1 16.58539 -16.75718 8.3172
484 3 12.43912 -19.1511 4.24333
485 3 16.58546 -19.1511 4.24332
486 3 10.36593 -15.56027 4.24333
487 3 12.43906 -16.75719 0.80349
488 3 14.51227 -15.56027 4.24333
489 3 16.58541 -16.75719 0.80349
490 3 12.43911 -19.15109 9.29015
491 3 16.58545 -19.1511 9.29015
492 3 10.36592 -15.56026 9.29015
493 3 12.43906 -16.75718 5.85032
494 3 14.51226 -15.56026 9.29015
495 3 16.5854 -16.75718 5.85032
496 1 20.73181 -19.1511 1.77645
497 1 24.87815 -19.1511 1.77645
498 1 18.65861 -17.95415 5.55006e-08
499 1 18.65862 -15.56027 1.77645
500 1 20.73175 -16.75718 3.27038
501 1 22.80495 -17.95415 6.50898e-07
502 1 22.80497 -15.56027 1.77645
503 1 24.87809 -16.75718 3.27038
504 1 24.8781 -14.36331 5.04682
505 1 20.7318 -19.1511 6.82327
506 1 24.87814 -19.1511 6.82327
507 1 26.95129 -17.95414 5.04682
508 1 18.65861 -15.56027 6.82327
509 1 20.73173 -16.75718 8.3172
510 1 22.80494 -17.95414 5.04682
511 1 22.80496 -15.56027 6.82326
512 1 24.87808 -16.75718 8.3172
513 3 20.7318 -19.1511 4.24333
514 3 24.87815 -19.1511 4.24332
515 3 18.65862 -15.56027 4.24333
516 3 20.73175 -16.75719 0.80349
517 3 22.80496 -15.56027 4.24333
518 3 24.87809 -16.75719 0.80349
519 3 20.73179 -19.15109 9.29015
520 3 24.87814 -19.1511 9.29015
521 3 18.65861 -15.56026 9.29015
522 3 20.73174 -16.75718 5.85032
523 3 22.80495 -15.56026 9.29015
524 3 24.87808 -16.75718 5.85032
525 1 12.4391 -19.15109 11.87009
526 1 16.58545 -19.15109 11.87009
527 1 10.3659 -17.95414 10.09364
528 1 10.36592 -15.56026 11.87009
529 1 12.43904 -16.75717 13.36402
530 1 14.51225 -17.95414 10.09364
531 1 14.51226 -15.56026 11.87009
532 1 16.58538 -16.75717 13.36402
533 1 16.5854 -14.3633 15.14046
534 1 12.4391 -19.15109 16.91691
535 1 16.58544 -19.15109 16.91691
536 1 18.65858 -17.95413 15.14046
537 1 10.36591 -15.56026 16.91691
538 1 12.43903 -16.75717 18.41084
539 1 14.51224 -17.95413 15.14046
540 1 14.51225 -15.56026 16.9169
541 1 16.58537 -16.75717 18.41084
542 3 12.4391 -19.15109 14.33697
543 3 16.58544 -19.15109 14.33696
544 3 10.36591 -15.56026 14.33697
545 3 12.43904 -16.75718 10.89713
546 3 14.51225 -15.56026 14.33697
547 3 16.58539 -16.75718 10.89713
548 3 12.43909 -19.15108 19.38379
549 3 16.58543 -19.15109 19.38379
550 3 10.3659 -15.56025 19.38379
551 3 12.43904 -16.75717 15.94396
552 3 14.51224 -15.56025 19.38379
553 3 16.58538 -16.75717 15.94396
554 1 20.73179 -19.15109 11.87009
555 1 24.87813 -19.15109 11.87009
556 1 18.65859 -17.95414 10.09364
557 1 18.6586 -15.56026 11.87009
558 1 20.73173 -16.75717 13.36402
559 1 22.80493 -17.95414 10.09364
560 1 22.80495 -15.56026 11.87009
561 1 24.87807 -16.75717 13.36402
562 1 24.87808 -14.3633 15.14046
563 1 20.73178 -19.15109 16.91691
564 1 24.87812 -19.15109 16.91691
565 1 26.95127 -17.95413 15.14046
566 1 18.65859 -15.56026 16.91691
567 1 20.73171 -16.75717 18.41084
568 1 22.80492 -17.95413 15.14046
569 1 22.80494 -15.56026 16.9169
570 1 24.87806 -16.75717 18.41084
571 3 20.73178 -19.15109 14.33697
572 3 24.87813 -19.15109 14.33696
573 3 18.6586 -15.56026 14.33697
574 3 20.73173 -16.75718 10.89713
575 3 22.80494 -15.56026 14.33697
576 3 24.87807 -16.75718 10.89713
577 3 20.73177 -19.15108 19.38379
578 3 24.87812 -19.15109 19.38379
579 3 18.65859 -15.56025 19.38379
580 3 20.73172 -16.75717 15.94396
581 3 22.80493 -15.56025 19.38379
582 3 24.87806 -16.75717 15.94396
583 1 8.29279 -11.96947 -18.41083
584 1 10.36592 -13.16638 -16.9169
585 1 12.43914 -11.96947 -18.41083
586 1 14.51226 -13.16638 -16.9169
587 1 6.21961 -8.37864 -18.41083
588 1 8.29273 -9.57554 -16.9169
589 1 10.36595 -8.37864 -18.41083
590 1 12.43907 -9.57555 -16.9169
591 1 12.43909 -7.18167 -15.14046
592 1 8.29278 -11.96946 -13.36401
593 1 10.3659 -13.16637 -11.87009
594 1 12.43911 -14.36334 -15.14046
595 1 12.43913 -11.96946 -13.36401
596 1 14.51225 -13.16637 -11.87008
597 1 14.51227 -10.7725 -15.14046
598 1 6.2196 -8.37863 -13.36401
599 1 8.29272 -9.57554 -11.87008
600 1 10.36593 -10.7725 -15.14046
601 1 10.36594 -8.37863 -13.36402
602 1 12.43906 -9.57554 -11.87008
603 3 8.29278 -11.96946 -15.94395
604 3 10.36592 -13.16638 -19.38378
605 3 12.43913 -11.96946 -15.94396
606 3 14.51226 -13.16638 -19.38378
607 3 6.2196 -8.37863 -15.94395
608 3 8.29273 -9.57555 -19.38379
609 3 10.36595 -8.37863 -15.94395
610 3 12.43908 -9.57555 -19.38379
611 3 8.29278 -11.96946 -10.89713
612 3 10.36591 -13.16638 -14.33696
613 3 12.43912 -11.96946 -10.89713
614 3 14.51225 -13.16638 -14.33696
615 3 6.21959 -8.37863 -10.89713
616 3 8.29272 -9.57554 -14.33696
617 3 10.36594 -8.37862 -10.89713
618 3 12.43907 -9.57554 -14.33696
619 1 4.14642 -4.7878 -18.41083
620 1 6.21954 -5.98472 -16.9169
621 1 8.29276 -4.7878 -18.41083
622 1 10.36589 -5.98472 -16.9169
623 1 2.07324 -1.19697 -18.41083
624 1 4.14636 -2.39388 -16.9169
625 1 6.21958 -1.19697 -18.41083
626 1 8.2927 -2.39388 -16.9169
627 1 8.29271 -1.28248e-05 -15.14046
628 1 4.14642 -4.7878 -13.36401
629 1 6.21953 -5.98471 -11.87009
630 1 8.29274 -7.18167 -15.14046
631 1 8.29275 -4.7878 -13.36401
632 1 10.36588 -5.98471 -11.87008
633 1 10.3659 -3.59084 -15.14046
634 1 2.07323 -1.19697 -13.36401
635 1 4.14635 -2.39388 -11.87008
636 1 6.21956 -3.59084 -15.14046
637 1 6.21957 -1.19697 -13.36402
638 1 8.29269 -2.39388 -11.87008
639 3 4.14642 -4.7878 -15.94395
640 3 6.21955 -5.98472 -19.38378
641 3 8.29276 -4.7878 -15.94396
642 3 10.36589 -5.98472 -19.38378
643 3 2.07323 -1.19697 -15.94395
644 3 4.14636 -2.39389 -19.38379
645 3 6.21957 -1.19697 -15.94395
646 3 8.2927 -2.39389 -19.38379
647 3 4.14641 -4.78779 -10.89713
648 3 6.21954 -5.98471 -14.33696
649 3 8.29275 -4.7878 -10.89713
650 3 10.36588 -5.98471 -14.33696
651 3 2.07322 -1.19696 -10.89713
652 3 4.14636 -2.39388 -14.33696
653 3 6.21956 -1.19696 -10.89713
654 3 8.29269 -2.39388 -14.33696
655 1 16.58548 -11.96947 -18.41083
656 1 18.6586 -13.16638 -16.9169
657 1 20.73182 -11.96947 -18.41083
658 1 22.80494 -13.16638 -16.9169
659 1 14.51229 -8.37864 -18.41083
660 1 16.58542 -9.57554 -16.9169
661 1 18.65864 -8.37864 -18.41083
662 1 20.73176 -9.57555 -16.9169
663 1 20.73177 -7.18167 -15.14046
664 1 16.58547 -11.96946 -13.36401
665 1 18.65859 -13.16637 -11.87009
666 1 20.7318 -14.36334 -15.14046
667 1 20.73181 -11.96946 -13.36401
668 1 22.80494 -13.16637 -11.87008
669 1 22.80496 -10.7725 -15.14046
670 1 14.51229 -8.37863 -13.36401
671 1 16.58541 -9.57554 -11.87008
672 1 18.65862 -10.7725 -15.14046
673 1 18.65863 -8.37863 -13.36402
674 1 20.73175 -9.57554 -11.87008
675 3 16.58547 -11.96946 -15.94395
676 3 18.65861 -13.16638 -19.38378
677 3 20.73182 -11.96946 -15.94396
678 3 22.80495 -13.16638 -19.38378
679 3 14.51229 -8.37863 -15.94395
680 3 16.58542 -9.57555 -19.38379
681 3 18.65863 -8.37863 -15.94395
682 3 20.73177 -9.57555 -19.38379
683 3 16.58547 -11.96946 -10.89713
684 3 18.6586 -13.16638 -14.33696
685 3 20.73181 -11.96946 -10.89713
686 3 22.80494 -13.16638 -14.33696
687 3 14.51228 -8.37863 -10.89713
688 3 16.58541 -9.57554 -14.33696
689 3 18.65862 -8.37862 -10.89713
690 3 20.73175 -9.57554 -14.33696
691 1 12.43911 -4.7878 -18.41083
692 1 14.51223 -5.98472 -16.9169
693 1 16.58545 -4.7878 -18.41083
694 1 18.65857 -5.98472 -16.9169
695 1 10.36592 -1.19697 -18.41083
696 1 12.43905 -2.39388 -16.9169
697 1 14.51227 -1.19697 -18.41083
698 1 16.58539 -2.39388 -16.9169
699 1 16.5854 -1.28248e-05 -15.14046
700 1 12.4391 -4.7878 -13.36401
701 1 14.51222 -5.98471 -11.87009
702 1 16.58543 -7.18167 -15.14046
703 1 16.58544 -4.7878 -13.36401
704 1 18.65856 -5.98471 -11.87008
705 1 18.65859 -3.59084 -15.14046
706 1 10.36591 -1.19697 -13.36401
707 1 12.43903 -2.39388 -11.87008
708 1 14.51224 -3.59084 -15.14046
709 1 14.51226 -1.19697 -13.36402
710 1 16.58538 -2.39388 -11.87008
711 3 12.4391 -4.7878 -15.94395
712 3 14.51224 -5.98472 -19.38378
713 3 16.58545 -4.7878 -15.94396
714 3 18.65858 -5.98472 -19.38378
715 3 10.36592 -1.19697 -15.94395
716 3 12.43905 -2.39389 -19.38379
717 3 14.51226 -1.19697 -15.94395
718 3 16.58539 -2.39389 -19.38379
719 3 12.43909 -4.78779 -10.89713
720 3 14.51223 -5.98471 -14.33696
721 3 16.58544 -4.7878 -10.89713
722 3 18.65857 -5.98471 -14.33696
723 3 10.36591 -1.19696 -10.89713
724 3 12.43904 -2.39388 -14.33696
725 3 14.51225 -1.19696 -10.89713
726 3 16.58538 -2.39388 -14.33696
727 1 8.29276 -14.36333 -10.09364
728 1 8.29277 -11.96946 -8.31719
729 1 10.3659 -13.16637 -6.82326
730 1 12.4391 -14.36333 -10.09364
731 1 12.43912 -11.96946 -8.31719
732 1 14.51224 -13.16637 -6.82326
733 1 6.21957 -10.7725 -10.09364
734 1 6.21959 -8.37863 -8.31719
735 1 8.29271 -9.57553 -6.82326
736 1 10.36592 -10.7725 -10.09364
737 1 10.36593 -8.37863 -8.31719
738 1 12.43905 -9.57554 -6.82326
739 1 12.43907 -7.18166 -5.04682
740 1 8.29276 -11.96945 -3.27037
741 1 10.36588 -13.16636 -1.77645
742 1 12.43909 -14.36333 -5.04682
743 1 12.43911 -11.96945 -3.27037
744 1 14.51223 -13.16636 -1.77644
745 1 14.51225 -10.77249 -5.04682
746 1 6.21958 -8.37862 -3.27037
747 1 8.2927 -9.57553 -1.77644
748 1 10.36591 -10.77249 -5.04682
749 1 10.36592 -8.37862 -3.27038
750 1 12.43904 -9.57553 -1.77644
751 3 8.29277 -11.96945 -5.85031
752 3 10.3659 -13.16637 -9.29014
753 3 12.43911 -11.96945 -5.85032
754 3 14.51224 -13.16637 -9.29014
755 3 6.21958 -8.37862 -5.85031
756 3 8.29271 -9.57554 -9.29015
757 3 10.36593 -8.37862 -5.85031
758 3 12.43906 -9.57554 -9.29015
759 3 8.29276 -11.96945 -0.80349
760 3 10.36589 -13.16637 -4.24332
761 3 12.4391 -11.96945 -0.80349
762 3 14.51223 -13.16637 -4.24332
763 3 6.21957 -8.37862 -0.80349
764 3 8.2927 -9.57553 -4.24332
765 3 10.36592 -8.37861 -0.80349
766 3 12.43905 -9.57553 -4.24332
767 1 4.14639 -7.18167 -10.09364
768 1 4.1464 -4.78779 -8.31719
769 1 6.21952 -5.98471 -6.82326
770 1 8.29273 -7.18167 -10.09364
771 1 8.29275 -4.78779 -8.31719
772 1 10.36587 -5.98471 -6.82326
773 1 2.0732 -3.59084 -10.09364
774 1 2.07322 -1.19696 -8.31719
775 1 4.14634 -2.39387 -6.82326
776 1 6.21955 -3.59084 -10.09364
777 1 6.21956 -1.19696 -8.31719
778 1 8.29268 -2.39387 -6.82326
779 1 8.29269 -1.4124e-06 -5.04682
780 1 4.1464 -4.78779 -3.27037
781 1 6.21951 -5.9847 -1.77645
782 1 8.29272 -7.18166 -5.04682
783 1 8.29273 -4.78779 -3.27037
784 1 10.36586 -5.9847 -1.77644
785 1 10.36588 -3.59083 -5.04682
786 1 2.07321 -1.19696 -3.27037
787 1 4.14633 -2.39387 -1.77644
788 1 6.21954 -3.59083 -5.04682
789 1 6.21955 -1.19696 -3.27038
790 1 8.29267 -2.39387 -1.77644
791 3 4.1464 -4.78779 -5.85031
792 3 6.21953 -5.98471 -9.29014
793 3 8.29274 -4.78779 -5.85032
794 3 10.36587 -5.98471 -9.29014
795 3 2.07321 -1.19696 -5.85031
796 3 4.14634 -2.39388 -9.29015
797 3 6.21955 -1.19696 -5.85031
798 3 8.29269 -2.39388 -9.29015
799 3 4.14639 -4.78778 -0.80349
800 3 6.21952 -5.9847 -4.24332
801 3 8.29273 -4.78779 -0.80349
802 3 10.36586 -5.9847 -4.24332
803 3 2.0732 -1.19695 -0.80349
804 3 4.14634 -2.39387 -4.24332
805 3 6.21954 -1.19695 -0.80349
806 3 8.29268 -2.39387 -4.24332
807 1 16.58545 -14.36333 -10.09364
808 1 16.58546 -11.96946 -8.31719
809 1 18.65858 -13.16637 -6.82326
810 1 20.73179 -14.36333 -10.09364
811 1 20.7318 -11.96946 -8.31719
812 1 22.80492 -13.16637 -6.82326
813 1 14.51226 -10.7725 -10.09364
814 1 14.51227 -8.37863 -8.31719
815 1 16.5854 -9.57553 -6.82326
816 1 18.6586 -10.7725 -10.09364
817 1 18.65862 -8.37863 -8.31719
818 1 20.73174 -9.57554 -6.82326
819 1 20.73175 -7.18166 -5.04682
820 1 16.58545 -11.96945 -3.27037
821 1 18.65857 -13.16636 -1.77645
822 1 20.73178 -14.36333 -5.04682
823 1 20.73179 -11.96945 -3.27037
824 1 22.80492 -13.16636 -1.77644
825 1 22.80494 -10.77249 -5.04682
826 1 14.51227 -8.37862 -3.27037
827 1 16.58539 -9.57553 -1.77644
828 1 18.6586 -10.77249 -5.04682
829 1 18.65861 -8.37862 -3.27038
830 1 20.73173 -9.57553 -1.77644
831 3 16.58545 -11.96945 -5.85031
832 3 18.65859 -13.16637 -9.29014
833 3 20.7318 -11.96945 -5.85032
834 3 22.80493 -13.16637 -9.29014
835 3 14.51227 -8.37862 -5.85031
836 3 16.5854 -9.57554 -9.29015
837 3 18.65861 -8.37862 -5.85031
838 3 20.73175 -9.57554 -9.29015
839 3 16.58545 -11.96945 -0.80349
840 3 18.65858 -13.16637 -4.24332
841 3 20.73179 -11.96945 -0.80349
842 3 22.80492 -13.16637 -4.24332
843 3 14.51226 -8.37862 -0.80349
844 3 16.58539 -9.57553 -4.24332
845 3 18.6586 -8.37861 -0.80349
846 3 20.73173 -9.57553 -4.24332
847 1 12.43908 -7.18167 -10.09364
848 1 12.43909 -4.78779 -8.31719
849 1 14.51221 -5.98471 -6.82326
850 1 16.58542 -7.18167 -10.09364
851 1 16.58543 -4.78779 -8.31719
852 1 18.65855 -5.98471 -6.82326
853 1 10.36589 -3.59084 -10.09364
854 1 10.3659 -1.19696 -8.31719
855 1 12.43903 -2.39387 -6.82326
856 1 14.51223 -3.59084 -10.09364
857 1 14.51225 -1.19696 -8.31719
858 1 16.58537 -2.39387 -6.82326
859 1 16.58538 -1.4124e-06 -5.04682
860 1 12.43908 -4.78779 -3.27037
861 1 14.5122 -5.9847 -1.77645
862 1 16.58541 -7.18166 -5.04682
863 1 16.58542 -4.78779 -3.27037
864 1 18.65854 -5.9847 -1.77644
865 1 18.65857 -3.59083 -5.04682
866 1 10.36589 -1.19696 -3.27037
867 1 12.43901 -2.39387 -1.77644
868 1 14.51222 -3.59083 -5.04682
869 1 14.51224 -1.19696 -3.27038
870 1 16.58536 -2.39387 -1.77644
871 3 12.43908 -4.78779 -5.85031
872 3 14.51222 -5.98471 -9.29014
873 3 16.58543 -4.78779 -5.85032
874 3 18.65856 -5.98471 -9.29014
875 3 10.3659 -1.19696 -5.85031
876 3 12.43903 -2.39388 -9.29015
877 3 14.51224 -1.19696 -5.85031
878 3 16.58537 -2.39388 -9.29015
879 3 12.43907 -4.78778 -0.80349
880 3 14.51221 -5.9847 -4.24332
881 3 16.58542 -4.78779 -0.80349
882 3 18.65855 -5.9847 -4.24332
883 3 10.36589 -1.19695 -0.80349
884 3 12.43902 -2.39387 -4.24332
885 3 14.51223 -1.19695 -0.80349
886 3 16.58536 -2.39387 -4.24332