# LAMMPS data file written by OVITO Basic 3.7.11
108 atoms
4 atom types
0.0 9.9495012775 xlo xhi
0.0 19.8990105507 ylo yhi
0.0 8.3825953292 zlo zhi
-5.1261017095e-07 -1.5608068681e-06 -7.1127544722e-07 xy xz yz

Masses

1 26.981538  # Al
2 44.95591  # Sc
3 63.546  # Cu
4 1.00794  # H

Atoms  # atomic

1 2 9.9494978329 1.8309312841e-06 3.0185475439e-05
2 2 1.6582414946 1.6582413398 4.1912693045
3 2 3.3165120683 1.0854883838e-05 1.4467604501e-05
4 2 4.9747489313 1.6582346724 4.1912740268
5 2 6.6329959203 4.8137057133e-06 3.2602968189e-05
6 2 8.2912547809 1.6582376761 4.1912565553
7 2 9.9494997334 3.3164931075 3.9455367215e-05
8 2 1.6582337609 4.974764323 4.1912865717
9 2 3.3165109916 3.3164869024 9.8084700921e-06
10 2 4.9747507265 4.9747651103 4.1912963451
11 2 6.6329946973 3.316493904 2.0898853926e-05
12 2 8.2912614138 4.974771874 4.1912762199
13 2 9.9494953299 6.6330083134 2.0492190668e-06
14 2 1.6582339819 8.2912578665 4.1912944243
15 2 3.3165057999 6.6330083529 6.3856738345e-06
16 2 4.9747564971 8.2912549449 4.1912734325
17 2 6.6330008888 6.633009711 1.2174603003e-05
18 2 8.2912599429 8.2912540873 4.1912769916
19 3 1.6582600481 1.6582578649 1.4508642998
20 3 5.7679016462e-06 2.8178301325e-06 2.7404329837
21 3 9.9494949445 9.949496081 5.6421515253
22 3 1.6582661916 1.6582538205 6.9317469003
23 3 4.9747507967 1.6582539076 1.45085424
24 3 3.3164826222 9.9495021718 2.7404336872
25 3 3.3164901597 9.9494984921 5.6421545448
26 3 4.9747549472 1.6582598159 6.9317475513
27 3 8.2912413083 1.6582558782 1.4508578961
28 3 6.6330108406 9.9495009185 2.7404345012
29 3 6.6330131897 9.9495010063 5.6421604981
30 3 8.2912273158 1.6582543745 6.9317449961
31 3 1.6582564605 4.9747539373 1.45085206
32 3 2.9170083321e-06 3.3164859233 2.740435191
33 3 9.9494920768 3.3164919701 5.6421477796
34 3 1.6582578148 4.9747631108 6.9317492211
35 3 4.9747438082 4.9747519315 1.4508572893
36 3 3.3164827488 3.3164893941 2.7404376892
37 3 3.3164982365 3.3164936177 5.6421500054
38 3 4.9747514905 4.9747476592 6.9317433352
39 3 8.2912507807 4.9747514153 1.4508545239
40 3 6.6330128096 3.3164915548 2.7404351828
41 3 6.6330069799 3.3164939013 5.6421594706
42 3 8.2912392358 4.9747595886 6.9317406554
43 3 1.6582582721 8.2912435398 1.4508587377
44 3 1.6884419242e-06 6.6330156305 2.7404325802
45 3 9.949494687 6.6330211104 5.6421590155
46 3 1.6582526127 8.2912370689 6.9317465329
47 3 4.9747477744 8.2912514187 1.4508552297
48 3 3.3164888697 6.6330180232 2.7404390225
49 3 3.3164921686 6.6330162009 5.6421539118
50 3 4.9747515196 8.2912474662 6.9317404758
51 3 8.2912442909 8.2912493327 1.4508535844
52 3 6.6330083987 6.6330153862 2.7404397541
53 3 6.6330117302 6.6330128837 5.6421563395
54 3 8.2912439454 8.2912401685 6.9317417965
55 2 9.9494975766 9.9495071063 3.0185475439e-05
56 2 1.6582412383 11.6077466152 4.1912693045
57 2 3.316511812 9.9495161302 1.4467604501e-05
58 2 4.974748675 11.6077399477 4.1912740268
59 2 6.632995664 9.949510089 3.2602968189e-05
60 2 8.2912545246 11.6077429515 4.1912565553
61 2 9.9494994771 13.2659983828 3.9455367215e-05
62 2 1.6582335045 14.9242695983 4.1912865717
63 2 3.3165107353 13.2659921778 9.8084700921e-06
64 2 4.9747504702 14.9242703856 4.1912963451
65 2 6.632994441 13.2659991793 2.0898853926e-05
66 2 8.2912611575 14.9242771493 4.1912762199
67 2 9.9494950736 16.5825135887 2.0492190668e-06
68 2 1.6582337256 18.2407631418 4.1912944243
69 2 3.3165055436 16.5825136283 6.3856738345e-06
70 2 4.9747562408 18.2407602203 4.1912734325
71 2 6.6330006325 16.5825149863 1.2174603003e-05
72 2 8.2912596866 18.2407593626 4.1912769916
73 3 1.6582597918 11.6077631403 1.4508642998
74 3 5.5115965607e-06 9.9495080932 2.7404329837
75 3 9.9494946882 19.8990013564 5.6421515253
76 3 1.6582659353 11.6077590958 6.9317469003
77 3 4.9747505404 11.6077591829 1.45085424
78 3 3.3164823659 19.8990074472 2.7404336872
79 3 3.3164899034 19.8990037675 5.6421545448
80 3 4.9747546909 11.6077650912 6.9317475513
81 3 8.291241052 11.6077611535 1.4508578961
82 3 6.6330105843 19.8990061939 2.7404345012
83 3 6.6330129334 19.8990062816 5.6421604981
84 3 8.2912270595 11.6077596499 6.9317449961
85 3 1.6582562042 14.9242592127 1.45085206
86 3 2.6607032466e-06 13.2659911987 2.740435191
87 3 9.9494918205 13.2659972454 5.6421477796
88 3 1.6582575585 14.9242683861 6.9317492211
89 3 4.9747435519 14.9242572069 1.4508572893
90 3 3.3164824925 13.2659946695 2.7404376892
91 3 3.3164979802 13.265998893 5.6421500054
92 3 4.9747512341 14.9242529345 6.9317433352
93 3 8.2912505244 14.9242566907 1.4508545239
94 3 6.6330125533 13.2659968301 2.7404351828
95 3 6.6330067236 13.2659991766 5.6421594706
96 3 8.2912389795 14.924264864 6.9317406554
97 3 1.6582580158 18.2407488152 1.4508587377
98 3 1.4321368387e-06 16.5825209058 2.7404325802
99 3 9.9494944307 16.5825263858 5.6421590155
100 3 1.6582523564 18.2407423443 6.9317465329
101 3 4.9747475181 18.2407566941 1.4508552297
102 3 3.3164886134 16.5825232986 2.7404390225
103 3 3.3164919123 16.5825214762 5.6421539118
104 3 4.9747512633 18.2407527415 6.9317404758
105 3 8.2912440346 18.240754608 1.4508535844
106 3 6.6330081424 16.5825206615 2.7404397541
107 3 6.6330114739 16.582518159 5.6421563395
108 3 8.2912436891 18.2407454439 6.9317417965
