# LAMMPS data file written by OVITO Basic 3.7.11
72 atoms
4 atom types
0.0 11.7875141324 xlo xhi
0.0 11.7875273684 ylo yhi
0.0 7.48175804 zlo zhi
-1.5866947813e-07 1.613520789e-06 1.3041254682e-06 xy xz yz

Masses

1 26.981538  # Al
2 44.95591  # Sc
3 63.546  # Cu
4 1.00794  # H

Atoms  # atomic

1 2 3.0146050229e-05 8.8157943435e-06 1.0983738765e-07
2 2 1.9649756205 1.9650355468 3.7408789274
3 2 3.9288130201 4.7474343745e-06 7.5365001184e-08
4 2 5.8937222143 1.9648442297 3.7408794236
5 2 7.8586806049 1.713050721e-05 7.4817564667
6 2 9.8225607122 1.9650357124 3.7408798799
7 2 3.5192753833e-05 3.9289244837 7.3947000117e-07
8 2 1.9647745624 5.8937599037 3.7408808484
9 2 3.9286498989 3.928733474 7.4817553491
10 2 5.8937217143 5.8937558482 3.7408808819
11 2 7.858847356 3.9287244644 7.4817556083
12 2 9.8227686206 5.8937535844 3.7408807163
13 2 4.2249190546e-05 7.8585930877 1.1683883605e-06
14 2 1.964977204 9.8224968449 3.74088066
15 2 3.9286454449 7.8587918502 7.4817555942
16 2 5.8937142457 9.8226949073 3.7408806353
17 2 7.8588403337 7.8587886619 7.4817547584
18 2 9.822570655 9.8225049305 3.7408828985
19 3 4.265245613e-06 1.9637585249 1.8705205763
20 3 1.9637522192 2.0838451799e-06 1.8705392631
21 3 1.9642545662 1.9642689481 7.6535273535e-07
22 3 1.9637539517 1.8658466001e-06 5.6112186226
23 3 4.9456117237e-06 1.9637582571 5.6112374267
24 3 1.0781592427e-05 -1.8052036833e-08 3.7408781397
25 3 3.9296039284 1.9641439619 1.8704441544
26 3 5.893753299 6.1301843672e-07 1.8704287851
27 3 5.8937481146 1.963871791 7.3578351154e-07
28 3 5.8937554176 11.7875268147 5.6113303596
29 3 3.9296049814 1.9641451516 5.6113155257
30 3 3.9298624684 2.9258928801e-06 3.7408792606
31 3 7.8579040433 1.9641445833 1.8704495397
32 3 9.8237685287 1.2126851404e-06 1.8705298208
33 3 9.8232704808 1.9642684163 7.7645995582e-07
34 3 9.8237668182 11.7875277807 5.6112277277
35 3 7.8579053276 1.9641448726 5.6113100348
36 3 7.8576409992 -1.8274492601e-07 3.7408777185
37 3 3.5251191817e-06 5.8937611943 1.8704277856
38 3 1.9641372817 3.9296164334 1.8704504051
39 3 1.9638550799 5.8937605222 2.3896860881e-06
40 3 1.9641401477 3.9296179187 5.6113079373
41 3 5.1817728912e-06 5.8937614216 5.6113286199
42 3 1.1273190571e-05 3.9298913702 3.7408779896
43 3 3.9299906183 5.8937624117 1.8703482758
44 3 5.8937554119 3.9300020051 1.8703382695
45 3 5.8937495615 5.8937625651 1.9197658557e-06
46 3 5.8937549622 3.9300033811 5.611420254
47 3 3.929992004 5.8937616979 5.6114103318
48 3 3.9294634366 3.929489021 3.7408771531
49 3 7.8575199063 5.893762589 1.8703537565
50 3 9.8233812969 3.929619069 1.8704415919
51 3 9.8236679797 5.8937620201 1.241718545e-06
52 3 9.8233809551 3.9296194203 5.6113162671
53 3 7.8575200385 5.8937629383 5.6114051312
54 3 7.8580402098 3.9294907497 3.7408781648
55 3 3.1165043993e-06 9.8237725189 1.8705202776
56 3 1.9641383261 7.8579102039 1.8704515838
57 3 1.9642538028 9.8232615048 9.2925749938e-07
58 3 1.9641410539 7.8579099206 5.6113051058
59 3 3.6354942839e-06 9.8237746686 5.6112347289
60 3 9.4298592829e-06 7.8576382433 3.7408769061
61 3 3.9296068971 9.8233847541 1.8704408363
62 3 5.89375509 7.857525518 1.8703380019
63 3 5.893749658 9.8236561128 1.5843399204e-06
64 3 5.8937562847 7.8575257959 5.6114201492
65 3 3.9296068841 9.8233868554 5.6113158728
66 3 3.9294644349 7.8580377913 3.740876895
67 3 7.8579035476 9.8233843907 1.8704467969
68 3 9.8233805163 7.857909426 1.8704432704
69 3 9.8232692539 9.823260865 2.2540179181e-06
70 3 9.823379254 7.8579112985 5.6113135071
71 3 7.8579047643 9.8233866448 5.6113103284
72 3 7.8580407757 7.8580384531 3.7408767949
