# LAMMPS data file written by OVITO Basic 3.7.11
108 atoms
4 atom types
0.0 10.1438654733 xlo xhi
0.0 20.2877166389 ylo yhi
0.0 10.1438654355 zlo zhi
1.1525438907e-05 -1.9475205016e-06 3.0125207145e-07 xy xz yz

Masses

1 26.981538  # Al
2 44.95591  # Sc
3 63.546  # Cu
4 1.00794  # H

Atoms  # atomic

1 1 2.410918836e-06 -4.2782505024e-06 4.9905346187e-07
2 1 3.3812605962 -2.5044731119e-07 5.8691904202e-07
3 1 6.7626030196 -2.1544372371e-06 -2.8388896098e-07
4 1 4.7652747242e-06 3.381259452 9.019422253e-07
5 1 3.3812665365 3.3812598918 9.2643935905e-07
6 1 6.7626002719 3.3812608679 -8.7730710556e-07
7 1 5.1118359912e-06 6.7626035562 -4.4163149141e-08
8 1 3.3812660986 6.7625988095 7.9531488234e-07
9 1 6.7626060496 6.762599605 9.8197267668e-07
10 1 1.0922874902e-06 -1.8809763794e-06 3.3812602088
11 1 3.38126262 -1.7706765649e-06 3.3812623606
12 1 6.7626004326 -3.3565362724e-06 3.3812636617
13 1 3.9217515054e-06 3.3812599977 3.3812628878
14 1 3.3812632339 3.3812591001 3.3812595104
15 1 6.7626026245 3.3812600349 3.3812620417
16 1 3.9237921139e-06 6.7626009628 3.3812610319
17 1 3.3812665439 6.7626017025 3.3812612585
18 1 6.7626052016 6.762602213 3.381261626
19 1 -4.015860662e-07 -2.2349047787e-06 6.7626033691
20 1 3.3812627376 -1.5453291e-06 6.7626013604
21 1 6.7625997148 -1.6385060451e-06 6.7626008506
22 1 1.3426726071e-06 3.3812604413 6.7626007164
23 1 3.3812641357 3.3812587169 6.7626040164
24 1 6.762602019 3.3812592684 6.7626031771
25 1 3.3911155413e-06 6.7626011064 6.7626031654
26 1 3.381265068 6.7626017197 6.7626022424
27 1 6.7626049441 6.7626014879 6.7626018109
28 2 1.6906795099 1.6906434382 1.690662338
29 2 5.0719021093 1.6906419429 1.6906685026
30 2 8.4532092108 1.6906520128 1.6906829561
31 2 1.6906502949 5.0719373154 1.6906480986
32 2 5.0719227393 5.0719276309 1.6906557499
33 2 8.453225753 5.0719624345 1.6906547414
34 2 1.6906636164 8.4532080564 1.6906727297
35 2 5.0719359717 8.453212011 1.6906543804
36 2 8.453223508 8.453180317 1.6906779506
37 2 1.6906563754 1.6906234992 5.0719150376
38 2 5.0719379585 1.6906546604 5.0719172281
39 2 8.4532054818 1.6906269682 5.0719218342
40 2 1.6906385453 5.0719384478 5.0719242232
41 2 5.0719536179 5.0719254073 5.0719223554
42 2 8.4532130289 5.071961956 5.0719271608
43 2 1.690638822 8.4532290761 5.0719083533
44 2 5.0719434534 8.4532120438 5.071914996
45 2 8.4532334446 8.4532019452 5.0719212189
46 2 1.6906766691 1.6906547507 8.453212903
47 2 5.0719196889 1.6906494069 8.4532133644
48 2 8.4532051414 1.6906456374 8.4531879202
49 2 1.6906470637 5.0719267706 8.4532368875
50 2 5.0719338967 5.0719335573 8.4532285008
51 2 8.4532131052 5.0719540549 8.4532155059
52 2 1.6906502796 8.4531974147 8.4532172716
53 2 5.0719477359 8.4532125663 8.4532337569
54 2 8.4532045642 8.4531758199 8.4531975517
55 1 8.1736382896e-06 10.1438540412 4.9905346187e-07
56 1 3.3812663589 10.143858069 5.8691904202e-07
57 1 6.7626087823 10.143856165 -2.8388896098e-07
58 1 1.0527994178e-05 13.5251177715 9.019422253e-07
59 1 3.3812722992 13.5251182112 9.2643935905e-07
60 1 6.7626060346 13.5251191873 -8.7730710556e-07
61 1 1.0874555445e-05 16.9064618757 -4.4163149141e-08
62 1 3.3812718613 16.9064571289 7.9531488234e-07
63 1 6.7626118123 16.9064579244 9.8197267668e-07
64 1 6.8550069439e-06 10.1438564385 3.3812602088
65 1 3.3812683827 10.1438565488 3.3812623606
66 1 6.7626061953 10.1438549629 3.3812636617
67 1 9.684470959e-06 13.5251183172 3.3812628878
68 1 3.3812689966 13.5251174195 3.3812595104
69 1 6.7626083872 13.5251183543 3.3812620417
70 1 9.6865115675e-06 16.9064592822 3.3812610319
71 1 3.3812723066 16.906460022 3.3812612585
72 1 6.7626109643 16.9064605324 3.381261626
73 1 5.3611333874e-06 10.1438560845 6.7626033691
74 1 3.3812685004 10.1438567741 6.7626013604
75 1 6.7626054776 10.1438566809 6.7626008506
76 1 7.1053920608e-06 13.5251187607 6.7626007164
77 1 3.3812698984 13.5251170364 6.7626040164
78 1 6.7626077817 13.5251175878 6.7626031771
79 1 9.1538349949e-06 16.9064594259 6.7626031654
80 1 3.3812708308 16.9064600391 6.7626022424
81 1 6.7626107068 16.9064598074 6.7626018109
82 2 1.6906852726 11.8345017576 1.690662338
83 2 5.071907872 11.8345002623 1.6906685026
84 2 8.4532149735 11.8345103323 1.6906829561
85 2 1.6906560576 15.2157956349 1.6906480986
86 2 5.0719285021 15.2157859503 1.6906557499
87 2 8.4532315158 15.215820754 1.6906547414
88 2 1.6906693792 18.5970663759 1.6906727297
89 2 5.0719417344 18.5970703304 1.6906543804
90 2 8.4532292708 18.5970386365 1.6906779506
91 2 1.6906621381 11.8344818187 5.0719150376
92 2 5.0719437212 11.8345129799 5.0719172281
93 2 8.4532112445 11.8344852877 5.0719218342
94 2 1.6906443081 15.2157967672 5.0719242232
95 2 5.0719593806 15.2157837268 5.0719223554
96 2 8.4532187916 15.2158202754 5.0719271608
97 2 1.6906445848 18.5970873956 5.0719083533
98 2 5.0719492162 18.5970703633 5.071914996
99 2 8.4532392073 18.5970602647 5.0719212189
100 2 1.6906824318 11.8345130702 8.453212903
101 2 5.0719254516 11.8345077264 8.4532133644
102 2 8.4532109041 11.8345039569 8.4531879202
103 2 1.6906528264 15.2157850901 8.4532368875
104 2 5.0719396594 15.2157918767 8.4532285008
105 2 8.4532188679 15.2158123743 8.4532155059
106 2 1.6906560423 18.5970557342 8.4532172716
107 2 5.0719534986 18.5970708857 8.4532337569
108 2 8.4532103269 18.5970341393 8.4531975517
