# LAMMPS data file written by OVITO Basic 3.7.11
128 atoms
4 atom types
0.0 11.71117 xlo xhi
0.0 11.71117 ylo yhi
0.0 11.71117 zlo zhi
-5.92636e-07 -5.05166e-07 3.5643e-07 xy xz yz

Masses

1 26.98154  # Al
2 44.95591  # Sc
3 63.546  # Cu
4 1.00794  # H

Atoms  # atomic

1 1 11.71117 4.96609e-07 4.92774e-06
2 1 8.54374e-08 2.92779 2.92779
3 1 2.92779 1.08886e-06 2.92779
4 1 2.9278 2.92779 3.81379e-06
5 1 5.85559 3.77508e-07 1.4218e-06
6 1 5.85559 2.92779 2.92779
7 1 8.78338 11.71117 2.92779
8 1 8.78338 2.92779 4.52373e-06
9 1 1.21437e-06 5.85559 5.68273e-06
10 1 11.71117 8.78338 2.92779
11 1 2.92779 5.85559 2.92779
12 1 2.92779 8.78338 3.30961e-06
13 1 5.85559 5.85559 2.14657e-06
14 1 5.85559 8.78338 2.92779
15 1 8.78338 5.85559 2.92779
16 1 8.78338 8.78338 2.64572e-06
17 1 11.71117 11.71117 5.85558
18 1 -4.14319e-08 2.92779 8.78338
19 1 2.9278 8.72086e-07 8.78338
20 1 2.9278 2.92779 5.85558
21 1 5.85559 11.71117 5.85558
22 1 5.85559 2.92779 8.78338
23 1 8.78337 11.71117 8.78338
24 1 8.78338 2.92779 5.85558
25 1 2.75295e-07 5.85559 5.85558
26 1 11.71117 8.78338 8.78338
27 1 2.9278 5.85559 8.78338
28 1 2.9278 8.78338 5.85558
29 1 5.85558 5.85559 5.85558
30 1 5.85559 8.78338 8.78338
31 1 8.78338 5.85559 8.78338
32 1 8.78338 8.78338 5.85558
33 3 2.92779 1.23515e-07 6.19051e-07
34 3 1.4639 4.39169 4.39169
35 3 1.4639 1.4639 4.39169
36 3 2.92779 2.92779 2.92779
37 3 1.4639 1.4639 1.4639
38 3 1.4639 4.39169 1.4639
39 3 11.71117 11.71117 2.92779
40 3 4.39169 4.39169 1.4639
41 3 4.39169 1.4639 1.4639
42 3 11.71117 2.92779 5.5705e-07
43 3 4.39169 1.4639 4.39169
44 3 4.39169 4.39169 4.39169
45 3 8.78338 7.75244e-08 5.52988e-07
46 3 7.31948 4.39169 4.39169
47 3 7.31948 1.4639 4.39169
48 3 8.78338 2.92779 2.92779
49 3 7.31948 1.4639 1.4639
50 3 7.31948 4.39169 1.4639
51 3 5.85559 9.21282e-08 2.92779
52 3 10.24728 4.39169 1.4639
53 3 10.24728 1.4639 1.4639
54 3 5.85559 2.92779 5.57611e-07
55 3 10.24728 1.4639 4.39169
56 3 10.24728 4.39169 4.39169
57 3 2.92779 5.85559 5.46485e-07
58 3 1.4639 10.24728 4.39169
59 3 1.4639 7.31948 4.39169
60 3 2.92779 8.78338 2.92779
61 3 1.4639 7.31948 1.4639
62 3 1.4639 10.24728 1.4639
63 3 11.71117 5.85559 2.92779
64 3 4.39169 10.24728 1.4639
65 3 4.39169 7.31948 1.4639
66 3 11.71117 8.78338 6.56615e-07
67 3 4.39169 7.31948 4.39169
68 3 4.39169 10.24728 4.39169
69 3 8.78338 5.85559 6.05681e-07
70 3 7.31948 10.24728 4.39169
71 3 7.31948 7.31948 4.39169
72 3 8.78338 8.78338 2.92779
73 3 7.31948 7.31948 1.4639
74 3 7.31948 10.24728 1.4639
75 3 5.85559 5.85559 2.92779
76 3 10.24728 10.24728 1.4639
77 3 10.24728 7.31948 1.4639
78 3 5.85559 8.78338 5.03152e-07
79 3 10.24728 7.31948 4.39169
80 3 10.24728 10.24728 4.39169
81 3 2.92779 11.71117 5.85559
82 3 1.4639 4.39169 10.24728
83 3 1.4639 1.4639 10.24728
84 3 2.92779 2.92779 8.78338
85 3 1.4639 1.4639 7.31948
86 3 1.4639 4.39169 7.31948
87 3 11.71117 3.81849e-07 8.78338
88 3 4.39169 4.39169 7.31948
89 3 4.39169 1.4639 7.31948
90 3 11.71117 2.92779 5.85559
91 3 4.39169 1.4639 10.24728
92 3 4.39169 4.39169 10.24728
93 3 8.78338 11.71117 5.85559
94 3 7.31948 4.39169 10.24728
95 3 7.31948 1.4639 10.24728
96 3 8.78338 2.92779 8.78338
97 3 7.31948 1.4639 7.31948
98 3 7.31948 4.39169 7.31948
99 3 5.85559 11.71117 8.78338
100 3 10.24728 4.39169 7.31948
101 3 10.24728 1.4639 7.31948
102 3 5.85559 2.92779 5.85559
103 3 10.24728 1.4639 10.24728
104 3 10.24728 4.39169 10.24728
105 3 2.92779 5.85559 5.85559
106 3 1.4639 10.24728 10.24728
107 3 1.4639 7.31948 10.24728
108 3 2.92779 8.78338 8.78338
109 3 1.4639 7.31948 7.31948
110 3 1.4639 10.24728 7.31948
111 3 11.71117 5.85559 8.78338
112 3 4.39169 10.24728 7.31948
113 3 4.39169 7.31948 7.31948
114 3 11.71117 8.78338 5.85559
115 3 4.39169 7.31948 10.24728
116 3 4.39169 10.24728 10.24728
117 3 8.78338 5.85559 5.85559
118 3 7.31948 10.24728 10.24728
119 3 7.31948 7.31948 10.24728
120 3 8.78338 8.78338 8.78338
121 3 7.31948 7.31948 7.31948
122 3 7.31948 10.24728 7.31948
123 3 5.85559 5.85559 8.78338
124 3 10.24728 10.24728 7.31948
125 3 10.24728 7.31948 7.31948
126 3 5.85559 8.78338 5.85559
127 3 10.24728 7.31948 10.24728
128 3 10.24727 10.24728 10.24728
