# LAMMPS data file written by OVITO Basic 3.7.10
665 atoms
4 atom types
-10.0 10.0 xlo xhi
-10.0 10.0 ylo yhi
-10.0 10.0 zlo zhi

Masses

1 26.98154  # Al
2 44.95591  # Sc
3 63.546  # Cu
4 1.00794  # H

Atoms  # atomic

1 3 -1.09164e-06 -9.08574 -9.08574
2 3 -7.26881 -9.08576 -9.08576
3 3 -5.45152 -1.91338e-07 -9.08612
4 3 -5.45152 -9.08612 0.0
5 3 -3.63423 -9.08576 -9.08576
6 3 -1.09164e-06 -5.45152 -9.08612
7 3 -9.08576 -7.26881 -9.08576
8 3 -7.26883 -5.45152 -9.08574
9 3 -5.45152 -7.26883 -9.08574
10 3 -5.45152 -5.45152 0.0
11 3 -3.63421 -7.26883 0.0
12 3 -3.63421 -5.45153 -9.08574
13 3 -1.81728 -7.26881 -9.08576
14 3 -9.08576 -3.63424 -9.08576
15 3 -9.08574 -1.81731 0.0
16 3 -7.26883 -3.63421 0.0
17 3 -7.26881 -1.81729 -9.08576
18 3 -5.45152 -3.63422 -9.08574
19 3 -3.63423 -1.81729 -9.08576
20 3 -1.81728 -3.63424 -9.08576
21 3 -9.08576 -9.08576 -7.26882
22 3 -7.26883 -1.91338e-07 -7.26883
23 3 -7.26883 -9.08574 -5.45152
24 3 -5.45152 -1.91338e-07 -5.45152
25 3 -5.45152 -9.08574 -7.26883
26 3 -3.63421 -1.91338e-07 -7.26883
27 3 -3.63421 -9.08573 -5.45152
28 3 -1.81728 -9.08576 -7.26882
29 3 -9.08574 -7.26883 -5.45152
30 3 -9.08574 -5.45152 -7.26884
31 3 -7.26881 -7.26881 -7.26882
32 3 -7.26845 -5.45152 -5.45153
33 3 -5.45152 -7.26845 -5.45153
34 3 -5.45152 -5.45153 -7.26845
35 3 -3.63423 -7.26881 -7.26881
36 3 -3.63459 -5.45152 -5.45153
37 3 -1.81731 -7.26883 -5.45152
38 3 -1.8173 -5.45152 -7.26883
39 3 -1.09164e-06 -3.63422 -7.26883
40 3 -1.09164e-06 -1.81693 -5.45152
41 3 -9.08574 -3.63422 -5.45152
42 3 -9.08576 -1.81729 -7.26881
43 3 -7.26881 -3.63423 -7.26881
44 3 -7.26883 -1.81731 -5.45152
45 3 -5.45152 -3.63459 -5.45152
46 3 -5.45152 -1.81731 -7.26883
47 3 -3.63423 -3.63423 -7.26881
48 3 -3.63421 -1.81731 -5.45152
49 3 -1.8173 -3.63421 -5.45152
50 3 -1.81729 -1.81729 -7.26881
51 3 -1.09164e-06 -9.08574 -1.81731
52 3 -9.08576 -9.08576 -3.63423
53 3 -7.26881 -9.08576 -1.81729
54 3 -5.45152 -9.08574 -3.63421
55 3 -3.63423 -9.08576 -1.81729
56 3 -1.81729 -9.08576 -3.63423
57 3 -1.09164e-06 -7.26883 -3.63422
58 3 -9.08576 -7.26882 -1.81729
59 3 -9.08574 -5.45152 -3.63421
60 3 -7.26882 -7.26882 -3.63423
61 3 -7.26883 -5.45152 -1.81731
62 3 -5.45152 -7.26884 -1.81731
63 3 -5.45152 -5.45152 -3.63459
64 3 -3.63423 -7.26882 -3.63423
65 3 -3.63421 -5.45153 -1.8173
66 3 -1.81729 -7.26882 -1.81729
67 3 -1.81731 -5.45152 -3.63422
68 3 -9.08576 -3.63423 -1.81729
69 3 -9.08576 -1.81729 -3.63423
70 3 -7.26882 -3.63423 -3.63423
71 3 -7.26881 -1.81729 -1.81729
72 3 -5.45152 -3.63421 -1.8173
73 3 -5.45152 -1.81731 -3.63421
74 3 -3.63423 -3.63423 -3.63424
75 3 -3.63423 -1.81729 -1.81729
76 3 -1.81728 -3.63423 -1.81729
77 3 -1.81728 -1.81729 -3.63423
78 3 -1.85935e-06 -9.08574 1.81731
79 3 -9.08574 -9.08574 3.87864e-06
80 3 -7.26881 -9.08576 1.81729
81 3 -5.45152 0.0 1.81693
82 3 -3.63423 -9.08576 1.81729
83 3 -1.8173 -9.08574 1.4709e-07
84 3 -1.85935e-06 -7.26845 6.50126e-06
85 3 -1.85935e-06 -5.45152 1.81693
86 3 -9.08576 -7.26881 1.81729
87 3 -9.08612 -5.45152 4.80985e-06
88 3 -7.26883 -7.26883 1.12839e-06
89 3 -7.26883 -5.45152 1.81731
90 3 -5.45152 -7.26883 1.81731
91 3 -3.63421 -5.45153 1.81731
92 3 -1.81728 -7.26881 1.81729
93 3 -1.81692 -5.45152 3.28979e-06
94 3 -9.08576 -3.63424 1.81729
95 3 -7.26881 -1.81729 1.81729
96 3 -5.45152 -3.63422 1.81731
97 3 -5.45152 -1.81693 7.04187e-08
98 3 -3.63421 -3.63421 2.18709e-06
99 3 -3.63423 -1.81729 1.81729
100 3 -1.81728 -3.63424 1.81729
101 3 -1.8173 -1.81731 2.09638e-06
102 3 -9.08576 -9.08576 3.63423
103 3 -7.26883 0.0 3.63422
104 3 -7.26883 -9.08574 5.45153
105 3 -5.45152 0.0 5.45153
106 3 -5.45152 -9.08574 3.63422
107 3 -3.63421 0.0 3.63422
108 3 -3.63421 -9.08573 5.45153
109 3 -1.81728 -9.08576 3.63423
110 3 -9.08574 -7.26883 5.45153
111 3 -9.08574 -5.45152 3.63421
112 3 -7.26881 -7.26881 3.63423
113 3 -7.26845 -5.45152 5.45152
114 3 -5.45152 -7.26845 5.45152
115 3 -5.45152 -5.45153 3.6346
116 3 -3.63423 -7.26881 3.63424
117 3 -3.63459 -5.45152 5.45152
118 3 -1.81731 -7.26883 5.45153
119 3 -1.8173 -5.45152 3.63422
120 3 -1.85935e-06 -3.63422 3.63422
121 3 -1.85935e-06 -1.81693 5.45153
122 3 -9.08574 -3.63422 5.45153
123 3 -9.08576 -1.81729 3.63424
124 3 -7.26881 -3.63423 3.63424
125 3 -7.26883 -1.81731 5.45153
126 3 -5.45152 -3.63459 5.45153
127 3 -5.45152 -1.81731 3.63422
128 3 -3.63423 -3.63423 3.63424
129 3 -3.63421 -1.81731 5.45153
130 3 -1.8173 -3.63421 5.45153
131 3 -1.81729 -1.81729 3.63424
132 3 -1.85935e-06 -9.08574 9.08574
133 3 -9.08576 -9.08576 7.26882
134 3 -7.26881 -9.08576 9.08576
135 3 -5.45152 -9.08574 7.26884
136 3 -3.63423 -9.08576 9.08576
137 3 -1.81729 -9.08576 7.26882
138 3 -1.85935e-06 -7.26883 7.26883
139 3 -9.08576 -7.26882 9.08576
140 3 -9.08574 -5.45152 7.26884
141 3 -7.26882 -7.26882 7.26882
142 3 -7.26883 -5.45152 9.08574
143 3 -5.45152 -7.26884 9.08574
144 3 -5.45152 -5.45152 7.26846
145 3 -3.63423 -7.26882 7.26882
146 3 -3.63421 -5.45153 9.08575
147 3 -1.81729 -7.26882 9.08576
148 3 -1.81731 -5.45152 7.26883
149 3 -9.08576 -3.63423 9.08576
150 3 -9.08576 -1.81729 7.26882
151 3 -7.26882 -3.63423 7.26882
152 3 -7.26881 -1.81729 9.08576
153 3 -5.45152 -3.63421 9.08575
154 3 -5.45152 -1.81731 7.26884
155 3 -3.63423 -3.63423 7.26881
156 3 -3.63423 -1.81729 9.08576
157 3 -1.81728 -3.63423 9.08576
158 3 -1.81728 -1.81729 7.26882
159 3 7.67712e-07 1.81731 -9.08574
160 3 -9.08574 1.54905e-06 -9.08574
161 3 -7.26845 3.3853e-08 0.0
162 3 -7.26881 1.81729 -9.08576
163 3 -5.45152 1.81693 0.0
164 3 -3.63423 1.81729 -9.08576
165 3 -1.8173 2.81078e-06 -9.08574
166 3 7.67712e-07 5.45153 -9.08612
167 3 -9.08576 3.63424 -9.08576
168 3 -7.26883 5.45153 -9.08574
169 3 -5.45152 3.63422 -9.08574
170 3 -5.45152 5.45153 0.0
171 3 -3.63421 3.63422 0.0
172 3 -3.63421 5.45152 -9.08574
173 3 -1.81728 3.63424 -9.08576
174 3 -9.08576 7.26881 -9.08576
175 3 -9.08574 9.08574 0.0
176 3 -7.26883 7.26884 0.0
177 3 -7.26881 9.08576 -9.08576
178 3 -5.45152 7.26883 -9.08574
179 3 -3.63423 9.08576 -9.08576
180 3 -1.81728 7.26881 -9.08576
181 3 7.67712e-07 2.90374e-06 -7.26846
182 3 -9.08612 -3.85292e-07 -5.45152
183 3 -9.08576 1.81729 -7.26882
184 3 -7.26883 1.81731 -5.45152
185 3 -5.45152 1.81731 -7.26883
186 3 -3.63421 1.81732 -5.45152
187 3 -1.81692 4.00504e-07 -5.45152
188 3 -1.81728 1.81729 -7.26882
189 3 -9.08574 3.63422 -5.45152
190 3 -9.08574 5.45153 -7.26884
191 3 -7.26881 3.63424 -7.26882
192 3 -7.26845 5.45153 -5.45153
193 3 -5.45152 3.6346 -5.45153
194 3 -5.45152 5.45152 -7.26845
195 3 -3.63423 3.63424 -7.26881
196 3 -3.63459 5.45153 -5.45153
197 3 -1.81731 3.63422 -5.45152
198 3 -1.8173 5.45153 -7.26883
199 3 7.67712e-07 7.26883 -7.26883
200 3 7.67712e-07 9.08612 -5.45152
201 3 -9.08574 7.26883 -5.45152
202 3 -9.08576 9.08576 -7.26881
203 3 -7.26881 7.26882 -7.26881
204 3 -7.26883 9.08574 -5.45152
205 3 -5.45152 7.26846 -5.45152
206 3 -5.45152 9.08574 -7.26883
207 3 -3.63423 7.26882 -7.26881
208 3 -3.63421 9.08574 -5.45152
209 3 -1.8173 7.26884 -5.45152
210 3 -1.81729 9.08576 -7.26881
211 3 7.67712e-07 3.67171e-07 -3.63459
212 3 7.67712e-07 1.81731 -1.81731
213 3 -9.08574 1.7439e-06 -1.81731
214 3 -9.08576 1.81729 -3.63423
215 3 -7.26883 1.01132e-06 -3.63421
216 3 -7.26881 1.81729 -1.81729
217 3 -5.45152 9.14722e-07 -1.81693
218 3 -5.45152 1.81731 -3.63421
219 3 -3.63421 5.95525e-07 -3.63421
220 3 -3.63423 1.81729 -1.81729
221 3 -1.8173 -6.5965e-08 -1.81731
222 3 -1.81729 1.81729 -3.63423
223 3 7.67712e-07 3.63422 -3.63422
224 3 -9.08576 3.63423 -1.81729
225 3 -9.08574 5.45153 -3.63421
226 3 -7.26882 3.63423 -3.63423
227 3 -7.26883 5.45153 -1.81731
228 3 -5.45152 3.63421 -1.81731
229 3 -5.45152 5.45153 -3.63459
230 3 -3.63423 3.63423 -3.63423
231 3 -3.63421 5.45152 -1.8173
232 3 -1.81729 3.63423 -1.81729
233 3 -1.81731 5.45153 -3.63422
234 3 -9.08576 7.26882 -1.81729
235 3 -9.08576 9.08576 -3.63423
236 3 -7.26882 7.26882 -3.63423
237 3 -7.26881 9.08576 -1.81729
238 3 -5.45152 7.26884 -1.8173
239 3 -5.45152 9.08574 -3.63421
240 3 -3.63423 7.26882 -3.63424
241 3 -3.63423 9.08576 -1.81729
242 3 -1.81728 7.26882 -1.81729
243 3 -1.81728 9.08576 -3.63423
244 3 0.0 2.26521e-06 2.3322e-06
245 3 0.0 1.81731 1.81731
246 3 -9.08574 1.74039e-06 1.81731
247 3 -9.08574 1.81731 3.87864e-06
248 3 -7.26881 1.81729 1.81729
249 3 -3.63459 -3.89991e-07 3.67461e-07
250 3 -3.63423 1.81729 1.81729
251 3 -1.8173 3.00212e-06 1.81731
252 3 -1.8173 1.81731 1.4709e-07
253 3 0.0 3.6346 6.50126e-06
254 3 0.0 5.45153 1.81693
255 3 -9.08576 3.63424 1.81729
256 3 -9.08612 5.45153 4.80985e-06
257 3 -7.26883 3.63422 1.12839e-06
258 3 -7.26883 5.45153 1.81731
259 3 -5.45152 3.63422 1.81731
260 3 -3.63421 5.45152 1.81731
261 3 -1.81728 3.63424 1.81729
262 3 -1.81692 5.45153 3.28979e-06
263 3 -9.08576 7.26881 1.81729
264 3 -7.26881 9.08576 1.81729
265 3 -5.45152 7.26883 1.81731
266 3 -5.45152 9.08612 7.04187e-08
267 3 -3.63421 7.26884 2.18709e-06
268 3 -3.63423 9.08576 1.81729
269 3 -1.81728 7.26881 1.81729
270 3 -1.8173 9.08574 2.09638e-06
271 3 0.0 3.09508e-06 3.63459
272 3 -9.08612 -1.93954e-07 5.45153
273 3 -9.08576 1.81729 3.63423
274 3 -7.26883 1.81731 5.45153
275 3 -5.45152 1.81731 3.63422
276 3 -3.63421 1.81732 5.45153
277 3 -1.81692 5.91842e-07 5.45153
278 3 -1.81728 1.81729 3.63423
279 3 -9.08574 3.63422 5.45153
280 3 -9.08574 5.45153 3.63421
281 3 -7.26881 3.63424 3.63423
282 3 -7.26845 5.45153 5.45152
283 3 -5.45152 3.6346 5.45152
284 3 -5.45152 5.45152 3.6346
285 3 -3.63423 3.63424 3.63424
286 3 -3.63459 5.45153 5.45152
287 3 -1.81731 3.63422 5.45153
288 3 -1.8173 5.45153 3.63422
289 3 0.0 7.26883 3.63422
290 3 0.0 9.08612 5.45153
291 3 -9.08574 7.26883 5.45153
292 3 -9.08576 9.08576 3.63424
293 3 -7.26881 7.26882 3.63424
294 3 -7.26883 9.08574 5.45153
295 3 -5.45152 7.26846 5.45153
296 3 -5.45152 9.08574 3.63422
297 3 -3.63423 7.26882 3.63424
298 3 -3.63421 9.08574 5.45153
299 3 -1.8173 7.26884 5.45153
300 3 -1.81729 9.08576 3.63424
301 3 0.0 5.58509e-07 7.26846
302 3 0.0 1.81731 9.08574
303 3 -9.08574 1.93524e-06 9.08574
304 3 -9.08576 1.81729 7.26882
305 3 -7.26883 1.20266e-06 7.26884
306 3 -7.26881 1.81729 9.08576
307 3 -5.45152 1.10606e-06 9.08612
308 3 -5.45152 1.81731 7.26884
309 3 -3.63421 7.86863e-07 7.26884
310 3 -3.63423 1.81729 9.08576
311 3 -1.8173 1.25373e-07 9.08574
312 3 -1.81729 1.81729 7.26882
313 3 0.0 3.63422 7.26883
314 3 -9.08576 3.63423 9.08576
315 3 -9.08574 5.45153 7.26884
316 3 -7.26882 3.63423 7.26882
317 3 -7.26883 5.45153 9.08574
318 3 -5.45152 3.63421 9.08574
319 3 -5.45152 5.45153 7.26846
320 3 -3.63423 3.63423 7.26882
321 3 -3.63421 5.45152 9.08575
322 3 -1.81729 3.63423 9.08576
323 3 -1.81731 5.45153 7.26883
324 3 -9.08576 7.26882 9.08576
325 3 -9.08576 9.08576 7.26882
326 3 -7.26882 7.26882 7.26882
327 3 -7.26881 9.08576 9.08576
328 3 -5.45152 7.26884 9.08575
329 3 -5.45152 9.08574 7.26884
330 3 -3.63423 7.26882 7.26881
331 3 -3.63423 9.08576 9.08576
332 3 -1.81728 7.26882 9.08576
333 3 -1.81728 9.08576 7.26882
334 3 3.63424 -9.08576 -9.08576
335 3 5.45153 -1.91338e-07 -9.08612
336 3 5.45153 -9.08612 0.0
337 3 7.26882 -9.08576 -9.08576
338 3 1.81729 -7.26881 -9.08576
339 3 3.63422 -5.45152 -9.08574
340 3 5.45153 -7.26883 -9.08574
341 3 5.45153 -5.45152 0.0
342 3 7.26884 -7.26883 0.0
343 3 7.26884 -5.45153 -9.08574
344 3 9.08577 -7.26881 -9.08576
345 3 1.02886e-06 -1.81731 -9.08574
346 3 1.81729 -3.63424 -9.08576
347 3 1.81731 -1.81731 0.0
348 3 3.63422 -3.63421 0.0
349 3 3.63424 -1.81729 -9.08576
350 3 5.45153 -3.63422 -9.08574
351 3 7.26882 -1.81729 -9.08576
352 3 9.08577 -3.63424 -9.08576
353 3 -7.26821e-07 -9.08612 -5.45152
354 3 1.81729 -9.08576 -7.26882
355 3 3.63422 -1.91338e-07 -7.26883
356 3 3.63422 -9.08574 -5.45152
357 3 5.45153 -1.91338e-07 -5.45152
358 3 5.45153 -9.08574 -7.26883
359 3 7.26884 -1.91338e-07 -7.26883
360 3 7.26884 -9.08573 -5.45152
361 3 9.08577 -9.08576 -7.26882
362 3 -6.51194e-07 -7.26883 -7.26884
363 3 -8.05553e-07 -5.45152 -5.45152
364 3 1.81731 -7.26883 -5.45152
365 3 1.81731 -5.45152 -7.26884
366 3 3.63424 -7.26881 -7.26882
367 3 3.6346 -5.45152 -5.45153
368 3 5.45153 -7.26845 -5.45153
369 3 5.45153 -5.45153 -7.26845
370 3 7.26882 -7.26881 -7.26881
371 3 7.26846 -5.45152 -5.45153
372 3 9.08574 -7.26883 -5.45152
373 3 9.08575 -5.45152 -7.26883
374 3 1.81731 -3.63422 -5.45152
375 3 1.81729 -1.81729 -7.26881
376 3 3.63424 -3.63423 -7.26881
377 3 3.63422 -1.81731 -5.45152
378 3 5.45153 -3.63459 -5.45152
379 3 5.45153 -1.81731 -7.26883
380 3 7.26882 -3.63423 -7.26881
381 3 7.26884 -1.81731 -5.45152
382 3 9.08575 -3.63421 -5.45152
383 3 9.08576 -1.81729 -7.26881
384 3 1.81729 -9.08576 -3.63423
385 3 3.63424 -9.08576 -1.81729
386 3 5.45153 -9.08574 -3.63421
387 3 7.26882 -9.08576 -1.81729
388 3 9.08576 -9.08576 -3.63423
389 3 -1.26377e-06 -5.45152 -1.81693
390 3 1.81729 -7.26882 -1.81729
391 3 1.81731 -5.45152 -3.63421
392 3 3.63423 -7.26882 -3.63423
393 3 3.63422 -5.45152 -1.81731
394 3 5.45153 -7.26884 -1.81731
395 3 5.45153 -5.45152 -3.63459
396 3 7.26882 -7.26882 -3.63423
397 3 7.26884 -5.45153 -1.8173
398 3 9.08576 -7.26882 -1.81729
399 3 9.08574 -5.45152 -3.63422
400 3 5.64072e-07 -3.63421 -3.63422
401 3 9.13882e-07 -1.81731 -1.81731
402 3 1.81729 -3.63423 -1.81729
403 3 1.81729 -1.81729 -3.63423
404 3 3.63423 -3.63423 -3.63423
405 3 3.63424 -1.81729 -1.81729
406 3 5.45153 -3.63421 -1.8173
407 3 5.45153 -1.81731 -3.63421
408 3 7.26882 -3.63423 -3.63424
409 3 7.26882 -1.81729 -1.81729
410 3 9.08577 -3.63423 -1.81729
411 3 9.08577 -1.81729 -3.63423
412 3 1.81731 -9.08574 3.87864e-06
413 3 3.63424 -9.08576 1.81729
414 3 5.45153 0.0 1.81693
415 3 7.26882 -9.08576 1.81729
416 3 9.08575 -9.08574 1.4709e-07
417 3 1.81729 -7.26881 1.81729
418 3 1.81693 -5.45152 4.80985e-06
419 3 3.63422 -7.26883 1.12839e-06
420 3 3.63422 -5.45152 1.81731
421 3 5.45153 -7.26883 1.81731
422 3 7.26884 -5.45153 1.81731
423 3 9.08577 -7.26881 1.81729
424 3 9.08613 -5.45152 3.28979e-06
425 3 1.4641e-06 -3.63459 1.40011e-06
426 3 2.6115e-07 -1.81731 1.81731
427 3 1.81729 -3.63424 1.81729
428 3 3.63424 -1.81729 1.81729
429 3 5.45153 -3.63422 1.81731
430 3 5.45153 -1.81693 7.04187e-08
431 3 7.26884 -3.63421 2.18709e-06
432 3 7.26882 -1.81729 1.81729
433 3 9.08577 -3.63424 1.81729
434 3 9.08575 -1.81731 2.09638e-06
435 3 -1.49453e-06 -9.08612 5.45153
436 3 1.81729 -9.08576 3.63423
437 3 3.63422 0.0 3.63422
438 3 3.63422 -9.08574 5.45153
439 3 5.45153 0.0 5.45153
440 3 5.45153 -9.08574 3.63422
441 3 7.26884 0.0 3.63422
442 3 7.26884 -9.08573 5.45153
443 3 9.08577 -9.08576 3.63423
444 3 -1.41891e-06 -7.26883 3.63421
445 3 -1.57326e-06 -5.45152 5.45153
446 3 1.81731 -7.26883 5.45153
447 3 1.81731 -5.45152 3.63421
448 3 3.63424 -7.26881 3.63423
449 3 3.6346 -5.45152 5.45152
450 3 5.45153 -7.26845 5.45152
451 3 5.45153 -5.45153 3.6346
452 3 7.26882 -7.26881 3.63424
453 3 7.26846 -5.45152 5.45152
454 3 9.08574 -7.26883 5.45153
455 3 9.08575 -5.45152 3.63422
456 3 1.81731 -3.63422 5.45153
457 3 1.81729 -1.81729 3.63424
458 3 3.63424 -3.63423 3.63424
459 3 3.63422 -1.81731 5.45153
460 3 5.45153 -3.63459 5.45153
461 3 5.45153 -1.81731 3.63422
462 3 7.26882 -3.63423 3.63424
463 3 7.26884 -1.81731 5.45153
464 3 9.08575 -3.63421 5.45153
465 3 9.08576 -1.81729 3.63424
466 3 1.81729 -9.08576 7.26882
467 3 3.63424 -9.08576 9.08576
468 3 5.45153 -9.08574 7.26884
469 3 7.26882 -9.08576 9.08576
470 3 9.08576 -9.08576 7.26882
471 3 -2.03148e-06 -5.45152 9.08612
472 3 1.81729 -7.26882 9.08576
473 3 1.81731 -5.45152 7.26884
474 3 3.63423 -7.26882 7.26882
475 3 3.63422 -5.45152 9.08574
476 3 5.45153 -7.26884 9.08574
477 3 5.45153 -5.45152 7.26846
478 3 7.26882 -7.26882 7.26882
479 3 7.26884 -5.45153 9.08575
480 3 9.08576 -7.26882 9.08576
481 3 9.08574 -5.45152 7.26883
482 3 -2.0364e-07 -3.63421 7.26883
483 3 1.4617e-07 -1.81731 9.08574
484 3 1.81729 -3.63423 9.08576
485 3 1.81729 -1.81729 7.26882
486 3 3.63423 -3.63423 7.26882
487 3 3.63424 -1.81729 9.08576
488 3 5.45153 -3.63421 9.08575
489 3 5.45153 -1.81731 7.26884
490 3 7.26882 -3.63423 7.26881
491 3 7.26882 -1.81729 9.08576
492 3 9.08577 -3.63423 9.08576
493 3 9.08577 -1.81729 7.26882
494 3 1.81731 1.54905e-06 -9.08574
495 3 3.6346 3.3853e-08 0.0
496 3 3.63424 1.81729 -9.08576
497 3 5.45153 1.81693 0.0
498 3 7.26882 1.81729 -9.08576
499 3 9.08575 2.81078e-06 -9.08574
500 3 1.81729 3.63424 -9.08576
501 3 3.63422 5.45153 -9.08574
502 3 5.45153 3.63422 -9.08574
503 3 5.45153 5.45153 0.0
504 3 7.26884 3.63422 0.0
505 3 7.26884 5.45152 -9.08574
506 3 9.08577 3.63424 -9.08576
507 3 2.88821e-06 9.08574 -9.08574
508 3 1.81729 7.26881 -9.08576
509 3 1.81731 9.08574 0.0
510 3 3.63422 7.26884 0.0
511 3 3.63424 9.08576 -9.08576
512 3 5.45153 7.26883 -9.08574
513 3 7.26882 9.08576 -9.08576
514 3 9.08577 7.26881 -9.08576
515 3 1.13253e-06 1.81693 -5.45152
516 3 1.81693 -3.85292e-07 -5.45152
517 3 1.81729 1.81729 -7.26882
518 3 3.63422 1.81731 -5.45152
519 3 5.45153 1.81731 -7.26883
520 3 7.26884 1.81732 -5.45152
521 3 9.08613 4.00504e-07 -5.45152
522 3 9.08577 1.81729 -7.26882
523 3 1.20816e-06 3.63422 -7.26884
524 3 1.0538e-06 5.45153 -5.45152
525 3 1.81731 3.63422 -5.45152
526 3 1.81731 5.45153 -7.26884
527 3 3.63424 3.63424 -7.26882
528 3 3.6346 5.45153 -5.45153
529 3 5.45153 3.6346 -5.45153
530 3 5.45153 5.45152 -7.26845
531 3 7.26882 3.63424 -7.26881
532 3 7.26846 5.45153 -5.45153
533 3 9.08574 3.63422 -5.45152
534 3 9.08575 5.45153 -7.26883
535 3 1.81731 7.26883 -5.45152
536 3 1.81729 9.08576 -7.26881
537 3 3.63424 7.26882 -7.26881
538 3 3.63422 9.08574 -5.45152
539 3 5.45153 7.26846 -5.45152
540 3 5.45153 9.08574 -7.26883
541 3 7.26882 7.26882 -7.26881
542 3 7.26884 9.08574 -5.45152
543 3 9.08575 7.26884 -5.45152
544 3 9.08576 9.08576 -7.26881
545 3 1.81731 1.7439e-06 -1.81731
546 3 1.81729 1.81729 -3.63423
547 3 3.63422 1.01132e-06 -3.63421
548 3 3.63424 1.81729 -1.81729
549 3 5.45153 9.14722e-07 -1.81693
550 3 5.45153 1.81731 -3.63421
551 3 7.26884 5.95525e-07 -3.63421
552 3 7.26882 1.81729 -1.81729
553 3 9.08575 -6.5965e-08 -1.81731
554 3 9.08576 1.81729 -3.63423
555 3 5.95584e-07 5.45153 -1.81693
556 3 1.81729 3.63423 -1.81729
557 3 1.81731 5.45153 -3.63421
558 3 3.63423 3.63423 -3.63423
559 3 3.63422 5.45153 -1.81731
560 3 5.45153 3.63421 -1.81731
561 3 5.45153 5.45153 -3.63459
562 3 7.26882 3.63423 -3.63423
563 3 7.26884 5.45152 -1.8173
564 3 9.08576 3.63423 -1.81729
565 3 9.08574 5.45153 -3.63422
566 3 2.42342e-06 7.26884 -3.63422
567 3 2.77323e-06 9.08574 -1.81731
568 3 1.81729 7.26882 -1.81729
569 3 1.81729 9.08576 -3.63423
570 3 3.63423 7.26882 -3.63423
571 3 3.63424 9.08576 -1.81729
572 3 5.45153 7.26884 -1.8173
573 3 5.45153 9.08574 -3.63421
574 3 7.26882 7.26882 -3.63424
575 3 7.26882 9.08576 -1.81729
576 3 9.08577 7.26882 -1.81729
577 3 9.08577 9.08576 -3.63423
578 3 1.81731 1.74039e-06 1.81731
579 3 1.81731 1.81731 3.87864e-06
580 3 3.63424 1.81729 1.81729
581 3 7.26846 -3.89991e-07 3.67461e-07
582 3 7.26882 1.81729 1.81729
583 3 9.08575 3.00212e-06 1.81731
584 3 9.08575 1.81731 1.4709e-07
585 3 1.81729 3.63424 1.81729
586 3 1.81693 5.45153 4.80985e-06
587 3 3.63422 3.63422 1.12839e-06
588 3 3.63422 5.45153 1.81731
589 3 5.45153 3.63422 1.81731
590 3 7.26884 5.45152 1.81731
591 3 9.08577 3.63424 1.81729
592 3 9.08613 5.45153 3.28979e-06
593 3 3.32345e-06 7.26846 1.40011e-06
594 3 2.1205e-06 9.08574 1.81731
595 3 1.81729 7.26881 1.81729
596 3 3.63424 9.08576 1.81729
597 3 5.45153 7.26883 1.81731
598 3 5.45153 9.08612 7.04187e-08
599 3 7.26884 7.26884 2.18709e-06
600 3 7.26882 9.08576 1.81729
601 3 9.08577 7.26881 1.81729
602 3 9.08575 9.08574 2.09638e-06
603 3 3.64817e-07 1.81693 5.45153
604 3 1.81693 -1.93954e-07 5.45153
605 3 1.81729 1.81729 3.63423
606 3 3.63422 1.81731 5.45153
607 3 5.45153 1.81731 3.63422
608 3 7.26884 1.81732 5.45153
609 3 9.08613 5.91842e-07 5.45153
610 3 9.08577 1.81729 3.63423
611 3 4.40444e-07 3.63422 3.63421
612 3 2.86085e-07 5.45153 5.45153
613 3 1.81731 3.63422 5.45153
614 3 1.81731 5.45153 3.63421
615 3 3.63424 3.63424 3.63423
616 3 3.6346 5.45153 5.45152
617 3 5.45153 3.6346 5.45152
618 3 5.45153 5.45152 3.6346
619 3 7.26882 3.63424 3.63424
620 3 7.26846 5.45153 5.45152
621 3 9.08574 3.63422 5.45153
622 3 9.08575 5.45153 3.63422
623 3 1.81731 7.26883 5.45153
624 3 1.81729 9.08576 3.63424
625 3 3.63424 7.26882 3.63424
626 3 3.63422 9.08574 5.45153
627 3 5.45153 7.26846 5.45153
628 3 5.45153 9.08574 3.63422
629 3 7.26882 7.26882 3.63424
630 3 7.26884 9.08574 5.45153
631 3 9.08575 7.26884 5.45153
632 3 9.08576 9.08576 3.63424
633 3 1.81731 1.93524e-06 9.08574
634 3 1.81729 1.81729 7.26882
635 3 3.63422 1.20266e-06 7.26884
636 3 3.63424 1.81729 9.08576
637 3 5.45153 1.10606e-06 9.08612
638 3 5.45153 1.81731 7.26884
639 3 7.26884 7.86863e-07 7.26884
640 3 7.26882 1.81729 9.08576
641 3 9.08575 1.25373e-07 9.08574
642 3 9.08576 1.81729 7.26882
643 3 -1.72128e-07 5.45153 9.08612
644 3 1.81729 3.63423 9.08576
645 3 1.81731 5.45153 7.26884
646 3 3.63423 3.63423 7.26882
647 3 3.63422 5.45153 9.08574
648 3 5.45153 3.63421 9.08574
649 3 5.45153 5.45153 7.26846
650 3 7.26882 3.63423 7.26882
651 3 7.26884 5.45152 9.08575
652 3 9.08576 3.63423 9.08576
653 3 9.08574 5.45153 7.26883
654 3 1.65571e-06 7.26884 7.26883
655 3 2.00552e-06 9.08574 9.08574
656 3 1.81729 7.26882 9.08576
657 3 1.81729 9.08576 7.26882
658 3 3.63423 7.26882 7.26882
659 3 3.63424 9.08576 9.08576
660 3 5.45153 7.26884 9.08575
661 3 5.45153 9.08574 7.26884
662 3 7.26882 7.26882 7.26881
663 3 7.26882 9.08576 9.08576
664 3 9.08577 7.26882 9.08576
665 3 9.08577 9.08576 7.26882
