# LAMMPS data file written by OVITO Basic 3.7.11
108 atoms
4 atom types
0.0 12.3197646661 xlo xhi
0.0 12.3201494325 ylo yhi
0.0 12.320144409 zlo zhi
-8.5474833057e-05 -1.049779132e-04 -2.9006271161e-05 xy xz yz

Masses

1 26.981538  # Al
2 44.95591  # Sc
3 63.546  # Cu
4 1.00794  # H

Atoms  # atomic

1 1 2.0521751115 -4.791156976e-06 2.0522506476
2 1 -2.9030500614e-05 2.0522561071 2.0522529737
3 1 2.0521813705 2.0522615642 4.0084314998e-06
4 1 6.1598721783 -1.0484153894e-06 2.0501519233
5 1 4.103057157 2.0568132191 2.0568171262
6 1 6.1598727509 2.0501521383 4.4691345958e-06
7 1 10.2675593736 -7.1939891774e-06 2.0522500928
8 1 8.216641769 2.0568175514 2.0568228421
9 1 10.2675595997 2.0522613714 2.801144939e-06
10 1 2.0567448395 4.1032508728 2.0568220225
11 1 -4.9865212215e-05 6.1600733057 2.0501518378
12 1 2.0500271911 6.1601159571 8.4645185514e-07
13 1 6.159836852 4.1078614439 2.0524997832
14 1 4.1077092531 6.1600677164 2.0524988511
15 1 6.1598375671 6.1600721124 2.2167503911e-06
16 1 10.2629306565 4.1032456543 2.0568148856
17 1 8.21193454 6.1600676862 2.0524971852
18 1 10.2696522439 6.1601500339 -2.0697290121e-05
19 1 2.0567144542 8.2168912557 2.056821076
20 1 -8.8632303588e-05 10.2678787262 2.0522534455
21 1 2.05212458 10.2678836065 4.1573285492e-06
22 1 6.1598012618 8.2122770797 2.0525000828
23 1 4.1030054314 10.2633182189 2.0568164245
24 1 6.1598089719 10.2699984876 5.7932876453e-07
25 1 10.2629082845 8.2168945099 2.0568201565
26 1 8.2165890809 10.2633283666 2.0568229049
27 1 10.2675023105 10.2678837997 1.0452464072e-06
28 1 2.0500148114 -3.0186653607e-05 6.1600649084
29 1 -6.0459559327e-05 2.0501373155 6.1600750821
30 1 2.0567438971 2.0568097795 4.1032598891
31 1 6.1598294311 -1.7350975304e-05 6.1600732212
32 1 4.1077031888 2.0524945879 6.1600747116
33 1 6.1598349437 2.0524997941 4.1078651691
34 1 10.2696166716 -2.0024041759e-05 6.1600370785
35 1 8.2119265308 2.0524904109 6.1600734604
36 1 10.2629263174 2.0568100335 4.1032520572
37 1 2.0523616207 4.1078490658 6.1600761032
38 1 -9.3810734182e-05 6.1600564891 6.1600782105
39 1 2.0523656109 6.1600639744 4.1078614132
40 1 6.1597966607 4.1099077552 6.1600666768
41 1 4.1096884874 6.1600726167 6.1600724019
42 1 6.1597951903 6.1600598073 4.1099196138
43 1 10.2672480356 4.1078498928 6.16007861
44 1 8.2098547122 6.1600660939 6.159981191
45 1 10.2672498375 6.1600662771 4.1078656192
46 1 2.0523348915 8.212268994 6.1600740097
47 1 -1.2740699272e-04 10.2699839221 6.1600703931
48 1 2.056684888 10.2633248067 4.1032566573
49 1 6.1597793639 8.2102118579 6.1600744776
50 1 4.1076464439 10.2676207175 6.1600784683
51 1 6.1597783472 10.2676270911 4.1078661526
52 1 10.2672174136 8.2122696116 6.1600744372
53 1 8.2118688142 10.2676243253 6.1600747497
54 1 10.2628617265 10.2633241121 4.1032454687
55 1 2.0521066952 -2.4337037844e-05 10.2678973259
56 1 -1.0119665705e-04 2.0522361861 10.2678965326
57 1 2.0567047291 2.0568014309 8.2168969012
58 1 6.159787317 -2.6676511579e-05 10.2699928002
59 1 4.1029900406 2.0567874556 10.2633198907
60 1 6.1597915145 2.0524899133 8.2122779138
61 1 10.2674896652 -2.8024682841e-05 10.2678987862
62 1 8.2165797981 2.0567906692 10.2633383832
63 1 10.2628970032 2.056800255 8.216892876
64 1 2.0566697581 4.1032329984 10.2633285803
65 1 -1.361164208e-04 6.1600457106 10.2699921966
66 1 2.052331087 6.1600528352 8.2122789442
67 1 6.1597684507 4.1078417877 10.2676504455
68 1 4.107640588 6.1600494467 10.2676507765
69 1 6.1597742534 6.1600612625 8.2102237325
70 1 10.262856105 4.103229368 10.2633233176
71 1 8.2118657667 6.1600482977 10.2676511129
72 1 10.2672136349 6.1600505054 8.2122810647
73 1 2.0566439695 8.2168742153 10.2633259283
74 1 -1.6136349083e-04 10.2678616939 10.2678978276
75 1 2.056648176 10.2633152396 8.2168996474
76 1 6.1597353065 8.2122604964 10.267646716
77 1 4.1029288224 10.2633067954 10.2633204864
78 1 6.1597338699 10.2676129544 8.2122767724
79 1 10.2628294395 8.2168646634 10.2633216493
80 1 8.2165045127 10.2633041425 10.2633232413
81 1 10.2628330865 10.2633048072 8.2168834721
82 2 2.256106021e-06 -1.3695604365e-06 2.0005431309e-06
83 2 4.1058130043 -9.9933535508e-07 2.2525713231e-06
84 2 8.213953438 -1.9879368206e-06 2.0027612263e-06
85 2 -2.7162586161e-05 4.1059426218 1.8005851309e-06
86 2 4.1064934123 4.1066499212 1.5229460664e-06
87 2 8.2132146501 4.1066503453 1.8167629922e-06
88 2 -5.5459754917e-05 8.2142065997 1.791037003e-06
89 2 4.1064670819 8.2134967856 2.2716694085e-06
90 2 8.2131835651 8.2134984869 1.7358232508e-06
91 2 -3.3518385044e-05 -1.1282089191e-05 4.1059377123
92 2 4.1064878238 -1.1928169129e-05 4.1066512138
93 2 8.213207382 -1.2068278702e-05 4.1066491412
94 2 -6.1464722708e-05 4.1066399185 4.1066504308
95 2 4.1078723378 4.1080551207 4.1080630294
96 2 8.2117655578 4.1080541871 4.1080631988
97 2 -9.0261378738e-05 8.2134864626 4.1066513913
98 2 4.1078450168 8.2120723954 4.1080639477
99 2 8.2117366535 8.2120735553 4.1080632834
100 2 -6.9548210303e-05 -2.0893225194e-05 8.2142107142
101 2 4.1064544223 -2.0799960275e-05 8.2134961665
102 2 8.2131714603 -2.1379155751e-05 8.2134980299
103 2 -9.6225387047e-05 4.1066300488 8.2135006085
104 2 4.1078380267 4.1080453814 8.2120859498
105 2 8.2117301617 4.1080450897 8.2120844065
106 2 -1.2480796831e-04 8.2134776899 8.2134998254
107 2 4.1078091865 8.2120617617 8.2120865422
108 2 8.2117022377 8.2120619016 8.2120843767
