# LAMMPS data file written by OVITO Basic 3.7.11
96 atoms
4 atom types
0.0 15.2092136196 xlo xhi
0.0 15.2092168814 ylo yhi
0.0 7.6046228598 zlo zhi
8.3442063851e-06 -2.7014785976e-06 -1.3662719821e-05 xy xz yz

Masses

1 26.981538  # Al
2 44.95591  # Sc
3 63.546  # Cu
4 1.00794  # H

Atoms  # atomic

1 1 2.8517276568 0.9505709608 2.851732866
2 1 6.6540330708 6.6540310807 0.9505779118
3 1 4.7528829308 6.6540277848 2.8517334785
4 1 0.9505757922 0.9505746992 0.9505784904
5 1 2.8517287192 4.7528690326 6.6540455427
6 1 6.654029945 2.8517193491 4.7528898482
7 1 4.7528793219 2.8517155327 6.6540459919
8 1 0.9505760542 4.7528720506 4.7528900546
9 1 6.6540277174 0.9505640109 6.6540455327
10 1 2.8517304907 6.6540237121 4.7528903554
11 1 0.9505765529 6.6540200371 6.654045175
12 1 4.7528792166 0.950566981 4.7528898895
13 1 6.654031679 4.752875127 2.8517336907
14 1 2.8517294883 2.8517255147 0.9505778279
15 1 0.9505758694 2.8517225632 2.8517331884
16 1 4.7528822009 4.7528788759 0.9505776417
17 2 1.9011518798 5.7034538603 1.9011558578
18 2 -2.7208815593e-06 -9.0848571716e-06 3.80230888
19 2 1.9011482315 1.901139135 5.7034683246
20 2 -3.8738620644e-07 3.8023047609 -3.2742892523e-06
21 2 5.7034571412 5.7034513714 5.7034665857
22 2 3.8023055004 -2.6148362226e-06 1.8059025634e-06
23 2 5.7034553504 1.9011493023 1.9011535923
24 2 3.8023093836 3.8022985153 3.8023122006
25 1 2.8517318289 8.5551794015 2.851732866
26 1 6.6540372429 14.2586395214 0.9505779118
27 1 4.7528871029 14.2586362255 2.8517334785
28 1 0.9505799643 8.5551831399 0.9505784904
29 1 2.8517328913 12.3574774733 6.6540455427
30 1 6.6540341171 10.4563277898 4.7528898482
31 1 4.752883494 10.4563239734 6.6540459919
32 1 0.9505802263 12.3574804913 4.7528900546
33 1 6.6540318895 8.5551724516 6.6540455327
34 1 2.8517346628 14.2586321528 4.7528903554
35 1 0.950580725 14.2586284778 6.654045175
36 1 4.7528833887 8.5551754217 4.7528898895
37 1 6.6540358511 12.3574835677 2.8517336907
38 1 2.8517336605 10.4563339554 0.9505778279
39 1 0.9505800415 10.4563310039 2.8517331884
40 1 4.752886373 12.3574873166 0.9505776417
41 2 1.9011560519 13.308062301 1.9011558578
42 2 1.4512216333e-06 7.6045993558 3.80230888
43 2 1.9011524036 9.5057475757 5.7034683246
44 2 3.7847169861e-06 11.4069132017 -3.2742892523e-06
45 2 5.7034613133 13.3080598121 5.7034665857
46 2 3.8023096725 7.6046058259 1.8059025634e-06
47 2 5.7034595225 9.505757743 1.9011535923
48 2 3.8023135557 11.406906956 3.8023122006
49 1 10.4563344666 0.9505709608 2.851732866
50 1 14.2586398806 6.6540310807 0.9505779118
51 1 12.3574897406 6.6540277848 2.8517334785
52 1 8.555182602 0.9505746992 0.9505784904
53 1 10.456335529 4.7528690326 6.6540455427
54 1 14.2586367548 2.8517193491 4.7528898482
55 1 12.3574861317 2.8517155327 6.6540459919
56 1 8.555182864 4.7528720506 4.7528900546
57 1 14.2586345272 0.9505640109 6.6540455327
58 1 10.4563373005 6.6540237121 4.7528903554
59 1 8.5551833627 6.6540200371 6.654045175
60 1 12.3574860264 0.950566981 4.7528898895
61 1 14.2586384888 4.752875127 2.8517336907
62 1 10.4563362981 2.8517255147 0.9505778279
63 1 8.5551826791 2.8517225632 2.8517331884
64 1 12.3574890107 4.7528788759 0.9505776417
65 2 9.5057586896 5.7034538603 1.9011558578
66 2 7.6046040889 -9.0848571716e-06 3.80230888
67 2 9.5057550413 1.901139135 5.7034683246
68 2 7.6046064224 3.8023047609 -3.2742892523e-06
69 2 13.308063951 5.7034513714 5.7034665857
70 2 11.4069123102 -2.6148362226e-06 1.8059025634e-06
71 2 13.3080621602 1.9011493023 1.9011535923
72 2 11.4069161934 3.8022985153 3.8023122006
73 1 10.4563386387 8.5551794015 2.851732866
74 1 14.2586440527 14.2586395214 0.9505779118
75 1 12.3574939127 14.2586362255 2.8517334785
76 1 8.5551867741 8.5551831399 0.9505784904
77 1 10.4563397011 12.3574774733 6.6540455427
78 1 14.2586409269 10.4563277898 4.7528898482
79 1 12.3574903038 10.4563239734 6.6540459919
80 1 8.5551870361 12.3574804913 4.7528900546
81 1 14.2586386993 8.5551724516 6.6540455327
82 1 10.4563414726 14.2586321528 4.7528903554
83 1 8.5551875348 14.2586284778 6.654045175
84 1 12.3574901985 8.5551754217 4.7528898895
85 1 14.2586426609 12.3574835677 2.8517336907
86 1 10.4563404702 10.4563339554 0.9505778279
87 1 8.5551868512 10.4563310039 2.8517331884
88 1 12.3574931828 12.3574873166 0.9505776417
89 2 9.5057628617 13.308062301 1.9011558578
90 2 7.604608261 7.6045993558 3.80230888
91 2 9.5057592134 9.5057475757 5.7034683246
92 2 7.6046105945 11.4069132017 -3.2742892523e-06
93 2 13.3080681231 13.3080598121 5.7034665857
94 2 11.4069164823 7.6046058259 1.8059025634e-06
95 2 13.3080663323 9.505757743 1.9011535923
96 2 11.4069203655 11.406906956 3.8023122006
