# LAMMPS data file written by OVITO Basic 3.7.11
108 atoms
4 atom types
0.0 12.44168 xlo xhi
0.0 12.44168 ylo yhi
0.0 11.43371 zlo zhi
7.99465e-07 -7.61004e-07 -1.2882e-07 xy xz yz

Masses

1 26.98154  # Al
2 44.95591  # Sc
3 63.546  # Cu
4 1.00794  # H

Atoms  # atomic

1 1 12.44168 2.07464 1.42922
2 1 2.07464 7.46153e-07 1.42922
3 1 4.14859 2.07222 1.42922
4 1 6.22084 5.47313e-07 1.42922
5 1 8.2931 2.07222 1.42922
6 1 10.36705 7.30819e-07 1.42922
7 1 5.14957e-07 6.22084 1.42922
8 1 2.07222 4.14859 1.42922
9 1 4.14622 6.22084 1.42921
10 1 6.22084 4.14622 1.42922
11 1 8.29546 6.22084 1.42921
12 1 10.36947 4.14859 1.42921
13 1 12.44168 10.36705 1.42922
14 1 2.07222 8.2931 1.42921
15 1 4.14859 10.36947 1.42921
16 1 6.22084 8.29546 1.42921
17 1 8.2931 10.36947 1.42922
18 1 10.36947 8.2931 1.42922
19 1 3.59785e-08 2.07464 4.28764
20 1 2.07464 12.44168 4.28764
21 1 4.14859 2.07222 4.28764
22 1 6.22084 2.27073e-07 4.28764
23 1 8.2931 2.07222 4.28764
24 1 10.36704 6.73817e-07 4.28764
25 1 2.41086e-07 6.22084 4.28764
26 1 2.07222 4.14859 4.28764
27 1 4.14622 6.22084 4.28764
28 1 6.22084 4.14622 4.28764
29 1 8.29546 6.22084 4.28764
30 1 10.36947 4.14859 4.28764
31 1 1.45921e-06 10.36705 4.28764
32 1 2.07222 8.2931 4.28764
33 1 4.14859 10.36947 4.28764
34 1 6.22084 8.29546 4.28764
35 1 8.2931 10.36947 4.28764
36 1 10.36947 8.2931 4.28764
37 1 7.50966e-07 2.07464 7.14607
38 1 2.07464 12.44168 7.14607
39 1 4.14859 2.07221 7.14607
40 1 6.22084 8.78057e-07 7.14607
41 1 8.29309 2.07222 7.14607
42 1 10.36705 12.44168 7.14607
43 1 5.14548e-07 6.22084 7.14607
44 1 2.07221 4.14859 7.14607
45 1 4.14622 6.22084 7.14607
46 1 6.22084 4.14622 7.14607
47 1 8.29546 6.22084 7.14607
48 1 10.36947 4.14859 7.14607
49 1 1.69926e-06 10.36704 7.14607
50 1 2.07221 8.2931 7.14607
51 1 4.14859 10.36947 7.14607
52 1 6.22084 8.29546 7.14607
53 1 8.2931 10.36947 7.14607
54 1 10.36947 8.2931 7.14607
55 1 -7.27374e-07 2.07464 10.0045
56 1 2.07464 -2.13322e-08 10.0045
57 1 4.14859 2.07221 10.0045
58 1 6.22083 1.03512e-06 10.0045
59 1 8.2931 2.07222 10.0045
60 1 10.36705 12.44168 10.0045
61 1 3.74716e-07 6.22084 10.0045
62 1 2.07221 4.14859 10.0045
63 1 4.14622 6.22084 10.0045
64 1 6.22084 4.14622 10.0045
65 1 8.29546 6.22084 10.0045
66 1 10.36947 4.14859 10.0045
67 1 -2.27271e-07 10.36704 10.0045
68 1 2.07222 8.2931 10.0045
69 1 4.14859 10.36947 10.0045
70 1 6.22084 8.29546 10.0045
71 1 8.2931 10.36946 10.0045
72 1 10.36947 8.2931 10.0045
73 3 2.23838e-06 12.44168 11.43371
74 3 4.14644 9.52719e-07 1.99249e-06
75 3 8.29524 5.89896e-07 1.42138e-06
76 3 2.24441e-06 4.14645 1.25132e-06
77 3 4.14693 4.14693 2.48885e-07
78 3 8.29475 4.14693 1.62726e-06
79 3 2.3548e-06 8.29524 9.76798e-07
80 3 4.14693 8.29475 11.43371
81 3 8.29475 8.29475 3.80306e-07
82 3 1.43006e-06 9.9793e-07 2.85843
83 3 4.14644 2.85182e-07 2.85843
84 3 8.29524 1.6736e-06 2.85843
85 3 1.07496e-06 4.14645 2.85843
86 3 4.14693 4.14693 2.85843
87 3 8.29475 4.14693 2.85843
88 3 2.48508e-06 8.29524 2.85843
89 3 4.14693 8.29475 2.85843
90 3 8.29475 8.29475 2.85843
91 3 3.0605e-06 12.44168 5.71686
92 3 4.14644 1.14217e-07 5.71685
93 3 8.29524 6.75326e-07 5.71685
94 3 9.3559e-07 4.14645 5.71686
95 3 4.14693 4.14693 5.71686
96 3 8.29475 4.14693 5.71685
97 3 1.79603e-06 8.29524 5.71686
98 3 4.14693 8.29475 5.71686
99 3 8.29475 8.29475 5.71686
100 3 1.21727e-06 -2.72738e-07 8.57528
101 3 4.14644 3.67482e-07 8.57529
102 3 8.29524 3.68883e-07 8.57528
103 3 1.33139e-06 4.14645 8.57528
104 3 4.14693 4.14693 8.57529
105 3 8.29475 4.14693 8.57528
106 3 1.71428e-06 8.29524 8.57529
107 3 4.14693 8.29475 8.57528
108 3 8.29475 8.29475 8.57529
