# LAMMPS data file written by OVITO Basic 3.7.11
108 atoms
4 atom types
0.0 13.8569 xlo xhi
0.0 13.8569 ylo yhi
0.0 13.8569 zlo zhi

Masses

1 26.98154  # Al
2 44.95591  # Sc
3 63.546  # Cu
4 1.00794  # H

Atoms  # atomic

1 2 0.0 0.0 0.0
2 2 0.0 2.30953 2.30953
3 2 2.30953 0.0 2.30953
4 2 2.30953 2.30953 0.0
5 2 4.61892 0.0 0.0
6 2 4.61892 2.30953 2.30953
7 2 6.92845 0.0 2.30953
8 2 6.92845 2.30953 0.0
9 2 9.23798 0.0 0.0
10 2 9.23798 2.30953 2.30953
11 2 11.54737 0.0 2.30953
12 2 11.54737 2.30953 0.0
13 2 0.0 4.61892 0.0
14 2 0.0 6.92845 2.30953
15 2 2.30953 4.61892 2.30953
16 2 2.30953 6.92845 0.0
17 2 4.61892 4.61892 0.0
18 2 4.61892 6.92845 2.30953
19 2 6.92845 4.61892 2.30953
20 2 6.92845 6.92845 0.0
21 2 9.23798 4.61892 0.0
22 2 9.23798 6.92845 2.30953
23 2 11.54737 4.61892 2.30953
24 2 11.54737 6.92845 0.0
25 2 0.0 9.23798 0.0
26 2 0.0 11.54737 2.30953
27 2 2.30953 9.23798 2.30953
28 2 2.30953 11.54737 0.0
29 2 4.61892 9.23798 0.0
30 2 4.61892 11.54737 2.30953
31 2 6.92845 9.23798 2.30953
32 2 6.92845 11.54737 0.0
33 2 9.23798 9.23798 0.0
34 2 9.23798 11.54737 2.30953
35 2 11.54737 9.23798 2.30953
36 2 11.54737 11.54737 0.0
37 2 0.0 0.0 4.61892
38 2 0.0 2.30953 6.92845
39 2 2.30953 0.0 6.92845
40 2 2.30953 2.30953 4.61892
41 2 4.61892 0.0 4.61892
42 2 4.61892 2.30953 6.92845
43 2 6.92845 0.0 6.92845
44 2 6.92845 2.30953 4.61892
45 2 9.23798 0.0 4.61892
46 2 9.23798 2.30953 6.92845
47 2 11.54737 0.0 6.92845
48 2 11.54737 2.30953 4.61892
49 2 0.0 4.61892 4.61892
50 2 0.0 6.92845 6.92845
51 2 2.30953 4.61892 6.92845
52 2 2.30953 6.92845 4.61892
53 2 4.61892 4.61892 4.61892
54 2 4.61892 6.92845 6.92845
55 2 6.92845 4.61892 6.92845
56 2 6.92845 6.92845 4.61892
57 2 9.23798 4.61892 4.61892
58 2 9.23798 6.92845 6.92845
59 2 11.54737 4.61892 6.92845
60 2 11.54737 6.92845 4.61892
61 2 0.0 9.23798 4.61892
62 2 0.0 11.54737 6.92845
63 2 2.30953 9.23798 6.92845
64 2 2.30953 11.54737 4.61892
65 2 4.61892 9.23798 4.61892
66 2 4.61892 11.54737 6.92845
67 2 6.92845 9.23798 6.92845
68 2 6.92845 11.54737 4.61892
69 2 9.23798 9.23798 4.61892
70 2 9.23798 11.54737 6.92845
71 2 11.54737 9.23798 6.92845
72 2 11.54737 11.54737 4.61892
73 2 0.0 0.0 9.23798
74 2 0.0 2.30953 11.54737
75 2 2.30953 0.0 11.54737
76 2 2.30953 2.30953 9.23798
77 2 4.61892 0.0 9.23798
78 2 4.61892 2.30953 11.54737
79 2 6.92845 0.0 11.54737
80 2 6.92845 2.30953 9.23798
81 2 9.23798 0.0 9.23798
82 2 9.23798 2.30953 11.54737
83 2 11.54737 0.0 11.54737
84 2 11.54737 2.30953 9.23798
85 2 0.0 4.61892 9.23798
86 2 0.0 6.92845 11.54737
87 2 2.30953 4.61892 11.54737
88 2 2.30953 6.92845 9.23798
89 2 4.61892 4.61892 9.23798
90 2 4.61892 6.92845 11.54737
91 2 6.92845 4.61892 11.54737
92 2 6.92845 6.92845 9.23798
93 2 9.23798 4.61892 9.23798
94 2 9.23798 6.92845 11.54737
95 2 11.54737 4.61892 11.54737
96 2 11.54737 6.92845 9.23798
97 2 0.0 9.23798 9.23798
98 2 0.0 11.54737 11.54737
99 2 2.30953 9.23798 11.54737
100 2 2.30953 11.54737 9.23798
101 2 4.61892 9.23798 9.23798
102 2 4.61892 11.54737 11.54737
103 2 6.92845 9.23798 11.54737
104 2 6.92845 11.54737 9.23798
105 2 9.23798 9.23798 9.23798
106 2 9.23798 11.54737 11.54737
107 2 11.54737 9.23798 11.54737
108 2 11.54737 11.54737 9.23798
