# LAMMPS data file written by OVITO Basic 3.7.10
503 atoms
4 atom types
0.0 20.0 xlo xhi
-10.0 10.0 ylo yhi
-10.0 10.0 zlo zhi

Masses

1 26.98154  # Al
2 44.95591  # Sc
3 63.546  # Cu
4 1.00794  # H

Atoms  # atomic

1 1 3.90342 3.00608e-08 -8.2818
2 1 3.89327 -8.19913 -8.29164
3 1 1.9081 -6.14972 -8.74904
4 1 2.50828 -6.14972 -5.70567
5 1 3.89327 -4.10031 -8.29164
6 1 1.91825 -2.04941 -8.7392
7 1 2.50642 -2.04908 -5.70485
8 3 1.77953 3.00608e-08 -7.04327
9 3 4.03199 -6.14972 -9.98757
10 3 1.77886 -8.19858 -7.04194
11 3 0.11867 -6.14972 -6.97225
12 3 4.03265 -2.04886 -9.9889
13 3 1.77886 -4.10086 -7.04194
14 3 0.11623 -2.05041 -6.97298
15 3 1.73094 3.00608e-08 -4.38165
16 3 0.07008 -6.14972 -4.31062
17 3 1.73338 -8.20013 -4.38091
18 3 0.07074 -2.04886 -4.31196
19 3 1.73338 -4.09931 -4.38091
20 1 1.91825 2.04941 -8.7392
21 1 2.50642 2.04908 -5.70485
22 1 3.89327 4.10031 -8.29164
23 1 1.9081 6.14972 -8.74904
24 1 2.50828 6.14972 -5.70567
25 1 3.89327 8.19913 -8.29164
26 3 4.03265 2.04886 -9.9889
27 3 0.11623 2.05041 -6.97298
28 3 4.03199 6.14972 -9.98757
29 3 1.77886 4.10086 -7.04194
30 3 0.11867 6.14972 -6.97225
31 3 1.77886 8.19858 -7.04194
32 3 0.07074 2.04886 -4.31196
33 3 0.07008 6.14972 -4.31062
34 3 1.73338 4.09931 -4.38091
35 3 1.73338 8.20013 -4.38091
36 1 16.05183 3.00608e-08 -8.2818
37 1 7.98231 3.00608e-08 -8.74903
38 1 5.94286 -6.14972 -8.51542
39 1 16.04168 -8.19913 -8.29164
40 1 7.99246 -8.19913 -8.7392
41 1 8.58062 -8.1988 -5.70485
42 1 12.01707 -8.20001 -8.51542
43 1 9.97762 -6.14972 -8.2818
44 1 14.05651 -6.14972 -8.74904
45 1 14.65669 -6.14972 -5.70567
46 1 5.94287 -2.05029 -8.51542
47 1 16.04168 -4.10031 -8.29164
48 1 7.99246 -4.10031 -8.7392
49 1 8.58062 -4.10064 -5.70485
50 1 12.01707 -4.09942 -8.51542
51 1 9.96748 -2.04941 -8.29164
52 1 14.06666 -2.04941 -8.7392
53 1 14.65483 -2.04908 -5.70485
54 1 12.08992 3.00608e-08 -2.60486
55 1 4.0204 3.00608e-08 -3.07209
56 1 8.05516 3.00608e-08 -2.83848
57 1 1.98095 -6.14972 -2.83848
58 1 12.07977 -8.19913 -2.6147
59 1 4.03054 -8.19913 -3.06225
60 1 11.4916 -8.1988 -5.64904
61 1 4.61871 -8.1988 -0.02791
62 1 8.05516 -8.20001 -2.83848
63 1 6.01571 -6.14972 -2.60486
64 1 10.0946 -6.14972 -3.07209
65 1 5.41554 -6.14972 -5.64822
66 1 10.69478 -6.14972 -0.02873
67 1 1.98095 -2.05029 -2.83848
68 1 12.07977 -4.10031 -2.61469
69 1 4.03054 -4.10031 -3.06226
70 1 11.4916 -4.10064 -5.64904
71 1 4.61871 -4.10063 -0.02791
72 1 8.05516 -4.09942 -2.83848
73 1 6.00557 -2.04941 -2.61469
74 1 10.10475 -2.04941 -3.06226
75 1 5.4174 -2.04908 -5.64904
76 1 10.69291 -2.04908 -0.02791
77 3 6.19288 3.00608e-08 -6.97224
78 3 13.92794 3.00608e-08 -7.04327
79 3 7.85373 -6.14972 -7.04327
80 3 16.1804 -6.14972 -9.98757
81 3 6.19043 -8.20013 -6.97298
82 3 6.0742 -6.14972 0.0
83 3 13.92727 -8.19858 -7.04194
84 3 10.10686 -8.19858 -9.9889
85 3 12.26708 -6.14972 -6.97225
86 3 12.1484 -4.09891 0.0
87 3 7.85307 -2.04886 -7.04194
88 3 16.18106 -2.04886 -9.9889
89 3 6.19043 -4.09931 -6.97298
90 3 13.92727 -4.10086 -7.04194
91 3 10.10686 -4.10086 -9.9889
92 3 12.26464 -2.05041 -6.97298
93 3 13.87935 3.00608e-08 -4.38165
94 3 2.23097 3.00608e-08 -1.2953
95 3 9.96603 3.00608e-08 -1.36633
96 3 6.14429 3.00608e-08 -4.31063
97 3 3.96191 -8.20053 -5.67695
98 3 3.89182 -6.14972 -1.36633
99 3 12.21849 -6.14972 -4.31062
100 3 13.88179 -8.20013 -4.38091
101 3 2.22852 -8.20013 -1.29604
102 3 10.03611 -6.14972 -5.67695
103 3 9.96536 -8.19858 -1.36499
104 3 6.14495 -8.19858 -4.31196
105 3 7.80514 -6.14972 -4.38165
106 3 8.30517 -6.14972 -1.2953
107 3 3.96191 -4.09891 -5.67695
108 3 3.89116 -2.04886 -1.36499
109 3 12.21915 -2.04886 -4.31196
110 3 13.88179 -4.09931 -4.38091
111 3 2.22852 -4.09931 -1.29604
112 3 10.03611 -2.05081 -5.67695
113 3 9.96536 -4.10086 -1.365
114 3 6.14495 -4.10086 -4.31196
115 3 7.80759 -2.05041 -4.38091
116 3 8.30272 -2.05041 -1.29604
117 1 8.12801 0.0 3.07209
118 1 0.05849 0.0 2.60486
119 1 8.11786 -8.19913 3.06225
120 1 0.06864 -8.19913 2.61469
121 1 7.52969 -8.1988 0.0279
122 1 0.6568 -8.1988 5.64904
123 1 4.09325 -8.20001 2.83847
124 1 2.0538 -6.14972 3.07209
125 1 6.13269 -6.14972 2.60485
126 1 1.45363 -6.14972 0.02873
127 1 6.73287 -6.14972 5.64822
128 1 8.11786 -4.10031 3.06225
129 1 0.06864 -4.10031 2.61469
130 1 7.52969 -4.10064 0.0279
131 1 0.6568 -4.10064 5.64904
132 1 4.09325 -4.09942 2.83847
133 1 2.04366 -2.04941 3.06225
134 1 6.14284 -2.04941 2.61469
135 1 1.45549 -2.04908 0.0279
136 1 6.73101 -2.04908 5.64904
137 1 4.1661 0.0 8.74903
138 1 0.13134 0.0 8.51541
139 1 4.15595 -8.19913 8.73919
140 1 3.56778 -8.1988 5.70485
141 1 0.13134 -8.20001 8.51541
142 1 2.17078 -6.14972 8.2818
143 1 4.15595 -4.10031 8.7392
144 1 3.56778 -4.10064 5.70485
145 1 0.13134 -4.09942 8.51541
146 1 2.18093 -2.04941 8.29163
147 3 9.91744 0.0 1.2953
148 3 6.00412 0.0 4.31062
149 3 8.25658 -6.14972 1.36632
150 3 9.91988 -8.20013 1.29604
151 3 6.00345 -8.19858 4.31195
152 3 2.18304 -8.19858 1.36499
153 3 3.84323 -6.14972 1.2953
154 3 4.34326 -6.14972 4.38164
155 3 8.25724 -2.04886 1.36499
156 3 9.91988 -4.09931 1.29604
157 3 6.0742 -2.05081 4.98085e-08
158 3 6.00345 -4.10086 4.31195
159 3 2.18304 -4.10086 1.36499
160 3 3.84568 -2.05041 1.29603
161 3 4.34082 -2.05041 4.38091
162 3 5.95553 0.0 6.97224
163 3 2.04221 0.0 9.98756
164 3 4.29467 -6.14972 7.04327
165 3 5.95797 -8.20013 6.97298
166 3 2.11229 -6.14972 5.67694
167 3 2.04154 -8.19858 9.9889
168 3 4.29533 -2.04886 7.04193
169 3 5.95797 -4.09931 6.97298
170 3 2.11229 -2.05081 5.67694
171 3 2.04154 -4.10086 9.98889
172 1 5.94286 2.05029 -8.51542
173 1 8.58249 -1.12544e-06 -5.70567
174 1 12.01707 1.91217e-06 -8.51542
175 1 9.96748 2.04941 -8.29164
176 1 14.06666 2.04941 -8.7392
177 1 14.65483 2.04908 -5.70485
178 1 5.94286 6.14972 -8.51542
179 1 16.04168 4.10031 -8.29164
180 1 7.99246 4.10031 -8.7392
181 1 8.58062 4.10064 -5.70485
182 1 12.01707 4.09943 -8.51542
183 1 9.97762 6.14972 -8.2818
184 1 14.05651 6.14972 -8.74904
185 1 14.65669 6.14972 -5.70567
186 1 16.04168 8.19913 -8.29164
187 1 7.99246 8.19913 -8.7392
188 1 8.58062 8.1988 -5.70485
189 1 12.01707 8.20002 -8.51542
190 1 1.98095 2.05029 -2.83848
191 1 11.48974 -2.49464e-07 -5.64822
192 1 4.62058 1.33144e-06 -0.02873
193 1 6.00557 2.04941 -2.6147
194 1 10.10475 2.04941 -3.06226
195 1 5.4174 2.04908 -5.64904
196 1 10.69291 2.04908 -0.02791
197 1 1.98095 6.14972 -2.83848
198 1 12.07977 4.10031 -2.6147
199 1 4.03054 4.10031 -3.06225
200 1 11.4916 4.10064 -5.64904
201 1 4.61871 4.10064 -0.02791
202 1 8.05516 4.09943 -2.83848
203 1 6.01571 6.14972 -2.60486
204 1 10.0946 6.14972 -3.07209
205 1 5.41554 6.14972 -5.64822
206 1 10.69478 6.14972 -0.02873
207 1 12.07977 8.19913 -2.61469
208 1 4.03054 8.19913 -3.06226
209 1 11.4916 8.1988 -5.64904
210 1 4.61871 8.19881 -0.02791
211 1 8.05516 8.20002 -2.83848
212 3 7.85307 2.04886 -7.04194
213 3 16.18106 2.04886 -9.9889
214 3 10.1062 2.13282e-07 -9.98757
215 3 12.26464 2.05041 -6.97298
216 3 7.85373 6.14972 -7.04327
217 3 16.1804 6.14972 -9.98757
218 3 6.19043 4.09931 -6.97298
219 3 6.0742 6.14972 0.0
220 3 13.92727 4.10086 -7.04194
221 3 10.10686 4.10086 -9.9889
222 3 12.26708 6.14972 -6.97225
223 3 12.1484 8.20053 0.0
224 3 6.19043 8.20013 -6.97298
225 3 13.92727 8.19858 -7.04194
226 3 10.10686 8.19858 -9.9889
227 3 3.96191 -2.16046e-07 -5.67695
228 3 3.89116 2.04886 -1.365
229 3 12.21915 2.04886 -4.31196
230 3 10.03611 2.05081 -5.67695
231 3 7.80759 2.05041 -4.38091
232 3 8.30272 2.05041 -1.29604
233 3 3.96191 4.09891 -5.67695
234 3 3.89182 6.14972 -1.36633
235 3 12.21849 6.14972 -4.31062
236 3 13.88179 4.09931 -4.38091
237 3 2.22852 4.09931 -1.29604
238 3 10.03611 6.14972 -5.67695
239 3 9.96536 4.10086 -1.36499
240 3 6.14495 4.10086 -4.31196
241 3 7.80514 6.14972 -4.38165
242 3 8.30517 6.14972 -1.2953
243 3 3.96191 8.20053 -5.67695
244 3 13.88179 8.20013 -4.38091
245 3 2.22852 8.20013 -1.29604
246 3 9.96536 8.19858 -1.365
247 3 6.14495 8.19858 -4.31196
248 1 7.52783 -6.33143e-07 0.02873
249 1 0.65867 -1.1555e-06 5.64822
250 1 4.09325 1.88211e-06 2.83847
251 1 2.04366 2.04941 3.06225
252 1 6.14284 2.04941 2.61469
253 1 1.45549 2.04908 0.0279
254 1 6.73101 2.04908 5.64904
255 1 8.11786 4.10031 3.06225
256 1 0.06864 4.10031 2.61469
257 1 7.52969 4.10064 0.0279
258 1 0.6568 4.10064 5.64904
259 1 4.09325 4.09943 2.83847
260 1 2.0538 6.14972 3.07209
261 1 6.13269 6.14972 2.60485
262 1 1.45363 6.14972 0.02873
263 1 6.73287 6.14972 5.64822
264 1 8.11786 8.19913 3.06225
265 1 0.06864 8.19913 2.61469
266 1 7.52969 8.1988 0.0279
267 1 0.6568 8.1988 5.64904
268 1 4.09325 8.20002 2.83847
269 1 3.56592 -2.79525e-07 5.70567
270 1 2.18093 2.04941 8.29163
271 1 4.15595 4.10031 8.73919
272 1 3.56778 4.10064 5.70485
273 1 0.13134 4.09943 8.51541
274 1 2.17078 6.14972 8.2818
275 1 4.15595 8.19913 8.7392
276 1 3.56778 8.1988 5.70485
277 1 0.13134 8.20002 8.51541
278 3 8.25724 2.04886 1.36499
279 3 6.0742 2.05081 -2.17658e-07
280 3 2.18238 1.83221e-07 1.36632
281 3 3.84568 2.05041 1.29603
282 3 4.34082 2.05041 4.38091
283 3 8.25658 6.14972 1.36632
284 3 9.91988 4.09931 1.29604
285 3 6.00345 4.10086 4.31195
286 3 2.18304 4.10086 1.36499
287 3 3.84323 6.14972 1.2953
288 3 4.34326 6.14972 4.38164
289 3 9.91988 8.20013 1.29604
290 3 6.00345 8.19858 4.31195
291 3 2.18304 8.19858 1.36499
292 3 4.29533 2.04886 7.04193
293 3 2.11229 2.05081 5.67694
294 3 4.29467 6.14972 7.04327
295 3 5.95797 4.09931 6.97298
296 3 2.11229 6.14972 5.67694
297 3 2.04154 4.10086 9.9889
298 3 5.95797 8.20013 6.97298
299 3 2.04154 8.19858 9.98889
300 1 18.09127 -6.14972 -8.51542
301 1 18.09128 -2.05029 -8.51542
302 1 16.16881 3.00608e-08 -3.07209
303 1 14.12936 -6.14972 -2.83848
304 1 16.17895 -8.19913 -3.06225
305 1 16.76712 -8.1988 -0.02791
306 1 18.16412 -6.14972 -2.60486
307 1 17.56395 -6.14972 -5.64822
308 1 14.12936 -2.05029 -2.83848
309 1 16.17895 -4.10031 -3.06226
310 1 16.76712 -4.10063 -0.02791
311 1 18.15398 -2.04941 -2.61469
312 1 17.56581 -2.04908 -5.64904
313 3 12.14841 3.00608e-08 0.0
314 3 18.34129 3.00608e-08 -6.97224
315 3 18.33884 -8.20013 -6.97298
316 3 18.22261 -6.14972 0.0
317 3 18.33884 -4.09931 -6.97298
318 3 14.37938 3.00608e-08 -1.2953
319 3 18.2927 3.00608e-08 -4.31063
320 3 16.11032 -8.20053 -5.67695
321 3 16.04023 -6.14972 -1.36633
322 3 14.37693 -8.20013 -1.29604
323 3 18.29336 -8.19858 -4.31196
324 3 19.95355 -6.14972 -4.38165
325 3 16.11032 -4.09891 -5.67695
326 3 16.03957 -2.04886 -1.36499
327 3 14.37693 -4.09931 -1.29604
328 3 18.29336 -4.10086 -4.31196
329 3 19.956 -2.05041 -4.38091
330 1 12.2069 0.0 2.60486
331 1 10.16745 -6.14972 2.83847
332 1 12.21705 -8.19913 2.61469
333 1 19.6781 -8.1988 0.0279
334 1 12.80521 -8.1988 5.64904
335 1 16.24166 -8.20001 2.83847
336 1 14.20221 -6.14972 3.07209
337 1 18.2811 -6.14972 2.60485
338 1 13.60204 -6.14972 0.02873
339 1 18.88128 -6.14972 5.64822
340 1 10.16746 -2.05029 2.83847
341 1 12.21705 -4.10031 2.61469
342 1 19.6781 -4.10064 0.0279
343 1 12.80521 -4.10064 5.64904
344 1 16.24166 -4.09942 2.83847
345 1 14.19207 -2.04941 3.06225
346 1 18.29125 -2.04941 2.61469
347 1 13.6039 -2.04908 0.0279
348 1 18.87942 -2.04908 5.64904
349 1 16.31451 0.0 8.74903
350 1 8.24499 0.0 8.2818
351 1 12.27975 0.0 8.51541
352 1 6.20554 -6.14972 8.51541
353 1 16.30436 -8.19913 8.73919
354 1 8.25513 -8.19913 8.29164
355 1 15.71619 -8.1988 5.70485
356 1 12.27975 -8.20001 8.51541
357 1 10.2403 -6.14972 8.74903
358 1 14.31919 -6.14972 8.2818
359 1 9.64013 -6.14972 5.70567
360 1 6.20554 -2.05029 8.51541
361 1 16.30436 -4.10031 8.7392
362 1 8.25513 -4.10031 8.29163
363 1 15.71619 -4.10064 5.70485
364 1 12.27975 -4.09942 8.51541
365 1 10.23016 -2.04941 8.7392
366 1 14.32934 -2.04941 8.29163
367 1 9.64199 -2.04908 5.70485
368 3 10.41747 0.0 4.38165
369 3 18.15253 0.0 4.31062
370 3 12.14841 -8.20053 -3.59892e-08
371 3 12.07832 -6.14972 4.31062
372 3 10.41502 -8.20013 4.38091
373 3 18.15186 -8.19858 4.31195
374 3 14.33145 -8.19858 1.36499
375 3 15.99164 -6.14972 1.2953
376 3 16.49167 -6.14972 4.38164
377 3 12.07766 -2.04886 4.31195
378 3 10.41502 -4.09931 4.38091
379 3 18.22261 -2.05081 4.98085e-08
380 3 18.15186 -4.10086 4.31195
381 3 14.33145 -4.10086 1.36499
382 3 15.99409 -2.05041 1.29603
383 3 16.48923 -2.05041 4.38091
384 3 18.10394 0.0 6.97224
385 3 14.19062 0.0 9.98756
386 3 10.36888 0.0 7.04326
387 3 8.1865 -8.20053 5.67694
388 3 8.11641 -6.14972 9.98756
389 3 16.44308 -6.14972 7.04327
390 3 18.10638 -8.20013 6.97298
391 3 14.2607 -6.14972 5.67694
392 3 14.18995 -8.19858 9.9889
393 3 10.36954 -8.19858 7.04193
394 3 12.02973 -6.14972 6.97224
395 3 8.1865 -4.09891 5.67694
396 3 8.11575 -2.04886 9.9889
397 3 16.44374 -2.04886 7.04193
398 3 18.10638 -4.09931 6.97298
399 3 14.2607 -2.05081 5.67694
400 3 14.18995 -4.10086 9.98889
401 3 10.36954 -4.10086 7.04193
402 3 12.03218 -2.05041 6.97298
403 1 18.09127 2.05029 -8.51542
404 1 18.09127 6.14972 -8.51542
405 1 14.12936 2.05029 -2.83848
406 1 16.76899 1.33144e-06 -0.02873
407 1 18.15398 2.04941 -2.6147
408 1 17.56581 2.04908 -5.64904
409 1 14.12936 6.14972 -2.83848
410 1 16.17895 4.10031 -3.06225
411 1 16.76712 4.10064 -0.02791
412 1 18.16412 6.14972 -2.60486
413 1 17.56395 6.14972 -5.64822
414 1 16.17895 8.19913 -3.06226
415 1 16.76712 8.19881 -0.02791
416 3 18.33884 4.09931 -6.97298
417 3 18.22261 6.14972 0.0
418 3 18.33884 8.20013 -6.97298
419 3 16.11032 -2.16046e-07 -5.67695
420 3 16.03957 2.04886 -1.365
421 3 19.956 2.05041 -4.38091
422 3 16.11032 4.09891 -5.67695
423 3 16.04023 6.14972 -1.36633
424 3 14.37693 4.09931 -1.29604
425 3 18.29336 4.10086 -4.31196
426 3 19.95355 6.14972 -4.38165
427 3 16.11032 8.20053 -5.67695
428 3 14.37693 8.20013 -1.29604
429 3 18.29336 8.19858 -4.31196
430 1 10.16745 2.05029 2.83847
431 1 19.67624 -6.33143e-07 0.02873
432 1 12.80708 -1.1555e-06 5.64822
433 1 16.24166 1.88211e-06 2.83847
434 1 14.19207 2.04941 3.06225
435 1 18.29125 2.04941 2.61469
436 1 13.6039 2.04908 0.0279
437 1 18.87942 2.04908 5.64904
438 1 10.16745 6.14972 2.83847
439 1 12.21705 4.10031 2.61469
440 1 19.6781 4.10064 0.0279
441 1 12.80521 4.10064 5.64904
442 1 16.24166 4.09943 2.83847
443 1 14.20221 6.14972 3.07209
444 1 18.2811 6.14972 2.60485
445 1 13.60204 6.14972 0.02873
446 1 18.88128 6.14972 5.64822
447 1 12.21705 8.19913 2.61469
448 1 19.6781 8.1988 0.0279
449 1 12.80521 8.1988 5.64904
450 1 16.24166 8.20002 2.83847
451 1 6.20554 2.05029 8.51541
452 1 15.71433 -2.79525e-07 5.70567
453 1 10.23016 2.04941 8.73919
454 1 14.32934 2.04941 8.29163
455 1 9.64199 2.04908 5.70485
456 1 6.20554 6.14972 8.51541
457 1 16.30436 4.10031 8.73919
458 1 8.25513 4.10031 8.29164
459 1 15.71619 4.10064 5.70485
460 1 12.27975 4.09943 8.51541
461 1 10.2403 6.14972 8.74903
462 1 14.31919 6.14972 8.2818
463 1 9.64013 6.14972 5.70567
464 1 16.30436 8.19913 8.7392
465 1 8.25513 8.19913 8.29163
466 1 15.71619 8.1988 5.70485
467 1 12.27975 8.20002 8.51541
468 3 12.07766 2.04886 4.31195
469 3 18.22261 2.05081 -2.17658e-07
470 3 14.33079 1.83221e-07 1.36632
471 3 15.99409 2.05041 1.29603
472 3 16.48923 2.05041 4.38091
473 3 12.14841 4.09891 -3.59892e-08
474 3 12.07832 6.14972 4.31062
475 3 10.41502 4.09931 4.38091
476 3 18.15186 4.10086 4.31195
477 3 14.33145 4.10086 1.36499
478 3 15.99164 6.14972 1.2953
479 3 16.49167 6.14972 4.38164
480 3 10.41502 8.20013 4.38091
481 3 18.15186 8.19858 4.31195
482 3 14.33145 8.19858 1.36499
483 3 8.1865 -2.46107e-07 5.67694
484 3 8.11575 2.04886 9.98889
485 3 16.44374 2.04886 7.04193
486 3 14.2607 2.05081 5.67694
487 3 12.03218 2.05041 6.97298
488 3 8.1865 4.09891 5.67694
489 3 8.11641 6.14972 9.98756
490 3 16.44308 6.14972 7.04327
491 3 18.10638 4.09931 6.97298
492 3 14.2607 6.14972 5.67694
493 3 14.18995 4.10086 9.9889
494 3 10.36954 4.10086 7.04193
495 3 12.02973 6.14972 6.97224
496 3 8.1865 8.20053 5.67694
497 3 18.10638 8.20013 6.97298
498 3 14.18995 8.19858 9.98889
499 3 10.36954 8.19858 7.04193
500 1 18.35395 -6.14972 8.51541
501 1 18.35395 -2.05029 8.51541
502 1 18.35395 2.05029 8.51541
503 1 18.35395 6.14972 8.51541
