# LAMMPS data file written by OVITO Basic 3.7.11
128 atoms
4 atom types
0.0 8.4776 xlo xhi
0.0 18.29888 ylo yhi
0.0 10.34551 zlo zhi
3.06388e-07 -3.28512e-07 -4.75008e-05 xy xz yz

Masses

1 26.98154  # Al
2 44.95591  # Sc
3 63.546  # Cu
4 1.00794  # H

Atoms  # atomic

1 1 4.19625e-07 1.54127 10.34548
2 1 2.1194 3.0328 2.58634
3 1 4.2388 1.54127 10.34548
4 1 6.3582 3.0328 2.58634
5 1 7.42313e-07 6.116 10.34548
6 1 2.1194 7.60753 2.58634
7 1 4.2388 6.116 10.34548
8 1 6.3582 7.60753 2.58634
9 1 1.24932e-06 1.54129 5.17273
10 1 2.1194 3.03278 7.75911
11 1 4.2388 1.54129 5.17273
12 1 6.3582 3.03278 7.75911
13 1 5.6824e-07 6.11602 5.17273
14 1 2.1194 7.6075 7.75911
15 1 4.2388 6.11602 5.17273
16 1 6.3582 7.6075 7.75911
17 3 -6.11376e-08 1.54001 2.58633
18 3 2.1194 3.03494 10.34547
19 3 8.4776 3.8352 1.29855
20 3 8.4776 3.83519 3.87421
21 3 2.1194 0.73965 1.28795
22 3 2.1194 0.73964 3.88474
23 3 4.2388 1.54002 2.58633
24 3 6.3582 3.03494 10.34547
25 3 4.2388 3.8352 1.29855
26 3 4.2388 3.83519 3.8742
27 3 6.3582 0.73965 1.28795
28 3 6.3582 0.73964 3.88474
29 3 8.4776 6.11474 2.58633
30 3 2.1194 7.60966 10.34547
31 3 5.06741e-08 8.40992 1.29854
32 3 2.09653e-08 8.40991 3.87421
33 3 2.1194 5.31437 1.28795
34 3 2.1194 5.31436 3.88474
35 3 4.2388 6.11474 2.58633
36 3 6.3582 7.60966 10.34547
37 3 4.2388 8.40992 1.29855
38 3 4.2388 8.40991 3.87421
39 3 6.3582 5.31437 1.28795
40 3 6.3582 5.31436 3.88474
41 3 -8.96371e-08 1.53999 7.75909
42 3 2.1194 3.03497 5.17272
43 3 -1.31921e-07 3.83518 6.47131
44 3 8.4776 3.83517 9.04696
45 3 2.1194 0.73962 6.46071
46 3 2.1194 0.73961 9.0575
47 3 4.2388 1.53999 7.75909
48 3 6.3582 3.03497 5.17272
49 3 4.2388 3.83518 6.47131
50 3 4.2388 3.83517 9.04696
51 3 6.3582 0.73962 6.46071
52 3 6.3582 0.73961 9.0575
53 3 8.4776 6.1147 7.75911
54 3 2.1194 7.60969 5.17272
55 3 -1.10928e-07 8.40989 6.47131
56 3 -3.59469e-07 8.40989 9.04696
57 3 2.1194 5.31434 6.46071
58 3 2.1194 5.31433 9.0575
59 3 4.2388 6.1147 7.75911
60 3 6.3582 7.60969 5.17272
61 3 4.2388 8.40989 6.47131
62 3 4.2388 8.40989 9.04696
63 3 6.3582 5.31434 6.46071
64 3 6.3582 5.31433 9.0575
65 1 5.72819e-07 10.69071 10.34548
66 1 2.1194 12.18224 2.58634
67 1 4.2388 10.69071 10.34548
68 1 6.3582 12.18224 2.58634
69 1 8.95507e-07 15.26543 10.34548
70 1 2.1194 16.75697 2.58634
71 1 4.2388 15.26543 10.34548
72 1 6.3582 16.75697 2.58634
73 1 1.40251e-06 10.69073 5.17273
74 1 2.1194 12.18222 7.75911
75 1 4.2388 10.69073 5.17273
76 1 6.3582 12.18222 7.75911
77 1 7.21434e-07 15.26546 5.17273
78 1 2.1194 16.75694 7.75911
79 1 4.2388 15.26546 5.17273
80 1 6.3582 16.75694 7.75911
81 3 9.20565e-08 10.68945 2.58633
82 3 2.1194 12.18438 10.34547
83 3 8.4776 12.98464 1.29855
84 3 8.4776 12.98463 3.87421
85 3 2.1194 9.88908 1.28795
86 3 2.1194 9.88908 3.88474
87 3 4.2388 10.68945 2.58633
88 3 6.3582 12.18438 10.34547
89 3 4.2388 12.98464 1.29855
90 3 4.2388 12.98463 3.8742
91 3 6.3582 9.88908 1.28795
92 3 6.3582 9.88908 3.88474
93 3 8.4776 15.26418 2.58633
94 3 2.1194 16.7591 10.34547
95 3 2.03868e-07 17.55936 1.29854
96 3 1.74159e-07 17.55935 3.87421
97 3 2.1194 14.4638 1.28795
98 3 2.1194 14.4638 3.88474
99 3 4.2388 15.26417 2.58633
100 3 6.3582 16.7591 10.34547
101 3 4.2388 17.55936 1.29855
102 3 4.2388 17.55935 3.87421
103 3 6.3582 14.4638 1.28795
104 3 6.3582 14.4638 3.88474
105 3 6.3557e-08 10.68943 7.75909
106 3 2.1194 12.1844 5.17272
107 3 2.12726e-08 12.98462 6.47131
108 3 8.4776 12.9846 9.04696
109 3 2.1194 9.88906 6.46071
110 3 2.1194 9.88905 9.0575
111 3 4.2388 10.68943 7.75909
112 3 6.3582 12.1844 5.17272
113 3 4.2388 12.98462 6.47131
114 3 4.2388 12.9846 9.04696
115 3 6.3582 9.88906 6.46071
116 3 6.3582 9.88905 9.0575
117 3 8.4776 15.26414 7.75911
118 3 2.1194 16.75913 5.17272
119 3 4.22657e-08 17.55933 6.47131
120 3 -2.06275e-07 17.55933 9.04696
121 3 2.1194 14.46378 6.46071
122 3 2.1194 14.46377 9.0575
123 3 4.2388 15.26414 7.75911
124 3 6.3582 16.75912 5.17272
125 3 4.2388 17.55933 6.47131
126 3 4.2388 17.55933 9.04696
127 3 6.3582 14.46378 6.46071
128 3 6.3582 14.46377 9.0575
