# LAMMPS data file written by OVITO Basic 3.7.11
64 atoms
4 atom types
0.0 13.2718821148 xlo xhi
0.0 11.4938436272 ylo yhi
0.0 10.3338653321 zlo zhi
-6.6358529522 -4.8175045354e-06 3.3611139218e-06 xy xz yz

Masses

1 26.981538  # Al
2 44.95591  # Sc
3 63.546  # Cu
4 1.00794  # H

Atoms  # atomic

1 2 1.6589667942 0.9578401577 1.2916335368
2 2 -9.9738644166e-05 1.9157281768 3.8752419584
3 2 4.9770131319 0.9578581048 1.2916288957
4 2 3.3178701717 1.9156953277 3.8752739336
5 2 4.0993849141e-05 3.8312098834 1.2916053131
6 2 -1.6589831385 4.7890396876 3.8752371235
7 2 3.3180201387 3.8312338979 1.2916179777
8 2 1.658878458 4.7890924903 3.875245454
9 2 1.6589839271 0.9578436437 6.4586902337
10 2 -8.3014432322e-05 1.915716334 9.0421712379
11 2 4.9770239935 0.9578507805 6.4586754156
12 2 3.3178553728 1.9157202236 9.0422001623
13 2 4.3574631439e-05 3.8312065289 6.458644878
14 2 -1.6589931951 4.7890294661 9.0421832738
15 2 3.3180283615 3.8312432984 6.4586875054
16 2 1.6588901374 4.7890597092 9.0421783026
17 2 8.295082602 0.9578386107 1.2916298719
18 2 6.6359781153 1.9157301089 3.8752423143
19 2 11.6129447869 0.9578412217 1.291634917
20 2 9.9538963194 1.9156942938 3.8752796617
21 2 6.6360866306 3.8312563127 1.2916121589
22 2 4.9769859317 4.7891411689 3.8752538047
23 2 9.954031956 3.8311882453 1.2916397657
24 2 8.2949121471 4.7890699035 3.8752491238
25 2 8.2950872706 0.9578615017 6.4586785931
26 2 6.6359805965 1.9157466967 9.0421678053
27 2 11.6129259564 0.9578382523 6.4586750929
28 2 9.9538862895 1.9157046623 9.0421898445
29 2 6.636081599 3.8312605723 6.4586584037
30 2 4.9769741181 4.7890996359 9.0421700092
31 2 9.9540051392 3.8311873046 6.4586784518
32 2 8.2949156092 4.7890587888 9.0421616173
33 2 -1.6588449022 6.7046252066 1.2916472469
34 2 -3.3179785913 7.6625728112 3.8752545843
35 2 1.6590549807 6.7046717076 1.2916510178
36 2 1.722566249e-06 7.6625495391 3.8752587664
37 2 -3.3178883312 9.5781697189 1.2916140089
38 2 -4.9769858856 10.5360638154 3.875240882
39 2 1.9420152391e-04 9.5781396016 1.2916470548
40 2 -1.6589732315 10.5360506969 3.8752412623
41 2 -1.6588534722 6.704631421 6.4586657621
42 2 -3.3179858388 7.662570153 9.0421695413
43 2 1.6590845283 6.7046853783 6.4586751693
44 2 9.5588548371e-06 7.6625648036 9.0422021288
45 2 -3.3178846855 9.5781635093 6.4586417874
46 2 -4.9769999842 10.5360964521 9.0421772075
47 2 1.7789313813e-04 9.5781458687 6.4586736438
48 2 -1.6589686602 10.5360560471 9.0421710866
49 2 4.9771026049 6.7047139448 1.2916533708
50 2 3.3179861466 7.6626489001 3.8752693949
51 2 8.2949981666 6.704662002 1.2916430345
52 2 6.6359275297 7.6625985713 3.8752674277
53 2 3.3181175658 9.5782257393 1.2916269815
54 2 1.6590938233 10.5360887985 3.875236216
55 2 6.6360352512 9.5781822013 1.2916440894
56 2 4.9769518485 10.5360985249 3.8752513002
57 2 4.9770862548 6.7047189512 6.4586556508
58 2 3.317970643 7.6626481124 9.0421543532
59 2 8.2949957988 6.7046491093 6.4586631553
60 2 6.6359311609 7.6626168969 9.0421987086
61 2 3.3181359525 9.578213223 6.4586346496
62 2 1.6590852097 10.5360959732 9.0421866996
63 2 6.6360130817 9.5781877708 6.4586680652
64 2 4.976957666 10.5361131867 9.0421697426
