# LAMMPS data file written by OVITO Basic 3.7.11
96 atoms
4 atom types
0.0 12.07499 xlo xhi
0.0 12.07499 ylo yhi
0.0 9.85912 zlo zhi
-5.66388e-07 -1.64393e-07 -4.40845e-07 xy xz yz

Masses

1 26.98154  # Al
2 44.95591  # Sc
3 63.546  # Cu
4 1.00794  # H

Atoms  # atomic

1 1 3.98005 0.96131 9.85912
2 1 2.06151 0.95724 2.46478
3 1 3.97599 5.08025 2.46478
4 1 2.05744 5.07619 7.1767e-07
5 1 0.95724 3.97599 2.46478
6 1 5.07619 3.98005 9.85912
7 1 0.9613 2.05744 9.85912
8 1 5.08025 2.06151 2.46478
9 1 10.01755 0.9613 9.85911
10 1 8.099 0.95724 2.46479
11 1 10.01348 5.08025 2.46478
12 1 8.09493 5.07619 9.85911
13 1 6.99474 3.97599 2.46478
14 1 11.11368 3.98006 -2.36555e-07
15 1 6.9988 2.05744 9.85911
16 1 11.11774 2.0615 2.46478
17 1 3.98005 6.9988 9.85911
18 1 2.06151 6.99474 2.46478
19 1 3.97599 11.11774 2.46478
20 1 2.05744 11.11368 9.85912
21 1 0.95724 10.01348 2.46478
22 1 5.07619 10.01754 9.85911
23 1 0.9613 8.09494 9.85912
24 1 5.08025 8.099 2.46478
25 1 10.01755 6.9988 2.80588e-06
26 1 8.099 6.99474 2.46478
27 1 10.01348 11.11775 2.46478
28 1 8.09494 11.11368 1.01116e-06
29 1 6.99474 10.01348 2.46478
30 1 11.11368 10.01755 1.37879e-06
31 1 6.9988 8.09494 4.09154e-07
32 1 11.11775 8.099 2.46478
33 1 3.98005 0.96131 4.92956
34 1 2.06151 0.95724 7.39434
35 1 3.97599 5.08025 7.39434
36 1 2.05744 5.07618 4.92956
37 1 0.95724 3.97599 7.39434
38 1 5.07619 3.98005 4.92956
39 1 0.96131 2.05744 4.92956
40 1 5.08025 2.06151 7.39433
41 1 10.01755 0.96131 4.92956
42 1 8.099 0.95724 7.39434
43 1 10.01348 5.08025 7.39434
44 1 8.09493 5.07619 4.92956
45 1 6.99474 3.97599 7.39434
46 1 11.11368 3.98005 4.92956
47 1 6.9988 2.05744 4.92956
48 1 11.11775 2.0615 7.39434
49 1 3.98005 6.9988 4.92956
50 1 2.06151 6.99474 7.39434
51 1 3.97599 11.11775 7.39433
52 1 2.05744 11.11368 4.92956
53 1 0.95724 10.01348 7.39434
54 1 5.07619 10.01755 4.92956
55 1 0.9613 8.09494 4.92956
56 1 5.08025 8.099 7.39434
57 1 10.01755 6.9988 4.92956
58 1 8.099 6.99474 7.39434
59 1 10.01348 11.11775 7.39433
60 1 8.09494 11.11368 4.92956
61 1 6.99474 10.01348 7.39433
62 1 11.11368 10.01755 4.92956
63 1 6.9988 8.09494 4.92956
64 1 11.11774 8.099 7.39433
65 3 1.17272e-06 3.2695e-09 3.69739
66 3 2.46399e-06 1.49318e-06 1.23217
67 3 3.01875 3.01875 1.23217
68 3 3.01875 3.01875 3.69739
69 3 6.03749 -6.89917e-08 3.69739
70 3 6.03749 1.2149e-06 1.23217
71 3 9.05624 3.01875 1.23217
72 3 9.05624 3.01875 3.69739
73 3 2.05787e-06 6.03749 3.69739
74 3 2.41108e-06 6.03749 1.23217
75 3 3.01875 9.05624 1.23217
76 3 3.01875 9.05624 3.69739
77 3 6.03749 6.03749 3.69739
78 3 6.03749 6.03749 1.23217
79 3 9.05624 9.05624 1.23217
80 3 9.05624 9.05624 3.69739
81 3 1.89731e-06 -3.68204e-07 8.62695
82 3 2.06839e-06 5.36225e-07 6.16173
83 3 3.01875 3.01875 6.16173
84 3 3.01875 3.01875 8.62695
85 3 6.03749 -2.93913e-07 8.62695
86 3 6.03749 1.52169e-06 6.16173
87 3 9.05624 3.01875 6.16173
88 3 9.05624 3.01875 8.62694
89 3 1.36176e-06 6.03749 8.62695
90 3 2.2761e-06 6.03749 6.16173
91 3 3.01875 9.05624 6.16173
92 3 3.01874 9.05624 8.62694
93 3 6.03749 6.03749 8.62695
94 3 6.03749 6.03749 6.16173
95 3 9.05624 9.05624 6.16173
96 3 9.05624 9.05624 8.62694
