# LAMMPS data file written by OVITO Basic 3.7.11
108 atoms
4 atom types
0.0 9.7890872109 xlo xhi
0.0 19.5781803981 ylo yhi
0.0 9.7890870051 zlo zhi
-6.1724293e-06 1.2859871483e-06 -1.106642082e-06 xy xz yz

Masses

1 26.981538  # Al
2 44.95591  # Sc
3 63.546  # Cu
4 1.00794  # H

Atoms  # atomic

1 2 1.6315236532 1.6315106448 1.6315302778
2 2 4.8945269627 1.6315310388 1.631534076
3 2 8.1575777138 1.6315210882 1.6315253298
4 2 1.631525987 4.8945408404 1.6315398253
5 2 4.8945542926 4.8945531542 1.6315317025
6 2 8.1575469426 4.8945599583 1.6315241666
7 2 1.6315128708 8.1575827942 1.6315170478
8 2 4.8945445945 8.157550757 1.631530104
9 2 8.1575672356 8.1575560005 1.6315318638
10 2 1.6315184148 1.6315297644 4.8945255972
11 2 4.8945425996 1.6315153935 4.894533807
12 2 8.1575686613 1.6315254622 4.89454653
13 2 1.6315115273 4.8945443377 4.8945389702
14 2 4.8945466946 4.8945558882 4.8945242311
15 2 8.157572034 4.894554397 4.894545965
16 2 1.6315187713 8.1575586006 4.8945427534
17 2 4.8945505249 8.1575625573 4.8945409534
18 2 8.1575557711 8.1575545946 4.894533799
19 2 1.6315151988 1.6315078675 8.1575731481
20 2 4.8945479053 1.6315138315 8.1575629682
21 2 8.1575693089 1.6315321677 8.1575578233
22 2 1.631506175 4.8945559766 8.1575509663
23 2 4.8945632891 4.8945595277 8.1575752034
24 2 8.1575622535 4.8945470266 8.1575595898
25 2 1.6315213622 8.1575698327 8.1575708229
26 2 4.8945369244 8.1575595642 8.157559351
27 2 8.1575671324 8.1575538512 8.1575642473
28 3 9.789083446 9.7890899999 3.1603178351e-07
29 3 3.2630004672 9.7890882496 9.7890864755
30 3 6.5260822625 9.7890899742 1.8234680455e-07
31 3 9.7890864493 3.2630021567 9.7890867189
32 3 3.2630020793 3.2630043542 1.2855807405e-06
33 3 6.5260839415 3.2630037888 6.6129265899e-08
34 3 9.7890861182 6.5260855692 9.7890867469
35 3 3.2630023068 6.5260852215 9.7890869046
36 3 6.5260820901 6.5260860215 9.3512245891e-07
37 3 9.7890829096 9.7890894393 3.2630023937
38 3 3.2630008678 9.7890895185 3.2630032423
39 3 6.5260826232 9.7890886998 3.2630034168
40 3 -5.1562517056e-08 3.2630032434 3.2630034822
41 3 3.2630017628 3.2630042456 3.2630028508
42 3 6.5260835276 3.2630033013 3.263002384
43 3 9.7890851064 6.5260861868 3.2630033052
44 3 3.263001472 6.5260849408 3.2630034152
45 3 6.5260825509 6.5260869483 3.2630023696
46 3 9.7890840703 9.7890891234 6.5260848658
47 3 3.2630013379 9.7890880342 6.5260846706
48 3 6.5260823424 9.7890892373 6.5260836122
49 3 9.789086255 3.2630033857 6.5260842504
50 3 3.2630021195 3.2630036129 6.5260832866
51 3 6.5260853688 3.2630022309 6.5260848939
52 3 -4.8012877626e-07 6.5260851235 6.5260842991
53 3 3.2630008658 6.526086193 6.5260841537
54 3 6.5260829725 6.5260862258 6.5260839922
55 2 1.631520567 11.4206008438 1.6315302778
56 2 4.8945238765 11.4206212378 1.631534076
57 2 8.1575746276 11.4206112872 1.6315253298
58 2 1.6315229008 14.6836310395 1.6315398253
59 2 4.8945512063 14.6836433532 1.6315317025
60 2 8.1575438564 14.6836501573 1.6315241666
61 2 1.6315097846 17.9466729932 1.6315170478
62 2 4.8945415083 17.946640956 1.631530104
63 2 8.1575641494 17.9466461995 1.6315318638
64 2 1.6315153286 11.4206199634 4.8945255972
65 2 4.8945395134 11.4206055925 4.894533807
66 2 8.1575655751 11.4206156613 4.89454653
67 2 1.631508441 14.6836345367 4.8945389702
68 2 4.8945436084 14.6836460872 4.8945242311
69 2 8.1575689478 14.6836445961 4.894545965
70 2 1.6315156851 17.9466487996 4.8945427534
71 2 4.8945474387 17.9466527563 4.8945409534
72 2 8.1575526849 17.9466447936 4.894533799
73 2 1.6315121126 11.4205980666 8.1575731481
74 2 4.894544819 11.4206040306 8.1575629682
75 2 8.1575662226 11.4206223667 8.1575578233
76 2 1.6315030888 14.6836461757 8.1575509663
77 2 4.8945602029 14.6836497267 8.1575752034
78 2 8.1575591672 14.6836372256 8.1575595898
79 2 1.631518276 17.9466600318 8.1575708229
80 2 4.8945338382 17.9466497632 8.157559351
81 2 8.1575640462 17.9466440502 8.1575642473
82 3 9.7890803598 19.5781801989 3.1603178351e-07
83 3 3.262997381 19.5781784486 9.7890864755
84 3 6.5260791763 19.5781801733 1.8234680455e-07
85 3 9.789083363 13.0520923558 9.7890867189
86 3 3.2629989931 13.0520945532 1.2855807405e-06
87 3 6.5260808553 13.0520939879 6.6129265899e-08
88 3 9.789083032 16.3151757682 9.7890867469
89 3 3.2629992206 16.3151754206 9.7890869046
90 3 6.5260790039 16.3151762205 9.3512245891e-07
91 3 9.7890798234 19.5781796383 3.2630023937
92 3 3.2629977816 19.5781797176 3.2630032423
93 3 6.526079537 19.5781788989 3.2630034168
94 3 -3.137777167e-06 13.0520934424 3.2630034822
95 3 3.2629986766 13.0520944446 3.2630028508
96 3 6.5260804414 13.0520935004 3.263002384
97 3 9.7890820202 16.3151763858 3.2630033052
98 3 3.2629983857 16.3151751398 3.2630034152
99 3 6.5260794647 16.3151771474 3.2630023696
100 3 9.7890809841 19.5781793224 6.5260848658
101 3 3.2629982517 19.5781782332 6.5260846706
102 3 6.5260792562 19.5781794363 6.5260836122
103 3 9.7890831688 13.0520935847 6.5260842504
104 3 3.2629990333 13.052093812 6.5260832866
105 3 6.5260822826 13.0520924299 6.5260848939
106 3 -3.5663434262e-06 16.3151753225 6.5260842991
107 3 3.2629977796 16.3151763921 6.5260841537
108 3 6.5260798863 16.3151764249 6.5260839922
