# LAMMPS data file written by OVITO Basic 3.7.11
96 atoms
4 atom types
0.0 12.6229815019 xlo xhi
0.0 10.9318178716 ylo yhi
0.0 15.1209056753 zlo zhi
-6.3114885322 2.1892106303e-07 -1.9496124833e-06 xy xz yz

Masses

1 26.981538  # Al
2 44.95591  # Sc
3 63.546  # Cu
4 1.00794  # H

Atoms  # atomic

1 1 5.4327460408e-05 3.6439015595 3.7802449377
2 1 3.1557112896 1.8220061426 1.2590984094
3 1 6.3115464937 3.6439103894 3.7802286782
4 1 9.4671716889 1.8219869272 1.259100692
5 1 -3.155703267 9.1098055925 3.7802338849
6 1 -4.639925359e-05 7.2879143231 1.2590974445
7 1 3.1557959839 9.1098311977 3.7802187041
8 1 6.3114486606 7.2879079055 1.2591085118
9 1 5.7943441543e-05 3.6439084661 8.8195467216
10 1 3.1556907021 1.8220164122 6.3013505303
11 1 6.3115378594 3.6439094922 8.8195304221
12 1 9.4671863779 1.8219919202 6.3013423236
13 1 -3.1557077543 9.1098061636 8.8195497918
14 1 -3.7462314496e-05 7.2879024109 6.3013541522
15 1 3.1558061236 9.1098233461 8.8195674169
16 1 6.3114472398 7.287908274 6.3013509794
17 1 5.0208563582e-05 3.6439104655 13.8617937166
18 1 3.1556908743 1.8220080622 11.3406818228
19 1 6.3115504635 3.6439017769 13.8618242086
20 1 9.4671836821 1.8219822281 11.3406876202
21 1 -3.1556981001 9.1098088047 13.8618004871
22 1 -3.4497668472e-05 7.2879122896 11.3406782998
23 1 3.1557881557 9.1098272302 13.8617965805
24 1 6.3114431728 7.287913115 11.3406711275
25 2 2.6878019613e-06 1.8760415625 1.2599417948
26 2 -1.5310206306 4.5278835967 1.2599419252
27 2 1.5310372352 4.5278868583 1.2599216255
28 2 3.1557585999 3.5898365893 3.7802491478
29 2 4.6867639313 0.9380464562 3.7802376478
30 2 1.6247185529 0.9380320163 3.7802494467
31 2 6.3114826835 1.8760711624 1.2599343819
32 2 4.7804892072 4.527881753 1.2599353891
33 2 7.8424822697 4.5278762378 1.2599470209
34 2 9.4672272991 3.5898146269 3.78025275
35 2 10.9982468166 0.9380234867 3.7802677205
36 2 7.9362370724 0.9380450792 3.7802555377
37 2 -3.1557546335 7.3419932608 1.2599344337
38 2 -4.68675797 9.9937804122 1.2599447128
39 2 -1.6247340153 9.993795087 1.2599291165
40 2 1.1629113017e-05 9.0557493663 3.7802389712
41 2 1.531044465 6.4039464848 3.7802610541
42 2 -1.5310202898 6.4039421008 3.7802524375
43 2 3.1557572091 7.3419888204 1.2599220394
44 2 1.6247436476 9.9937842468 1.2599271602
45 2 4.6867598882 9.9937786223 1.2599403623
46 2 6.3114745828 9.0557510434 3.7802417745
47 2 7.8424825363 6.4039386648 3.7802360407
48 2 4.7804752086 6.4039438849 3.7802505914
49 2 -2.2618419729e-05 1.8760568289 6.3005392693
50 2 -1.5310175395 4.5278383758 6.3005460967
51 2 1.5310239505 4.5278617131 6.300543917
52 2 3.1557532094 3.5898263918 8.8203317604
53 2 4.686779666 0.9380588436 8.8203407413
54 2 1.6247120874 0.9380523012 8.8203281106
55 2 6.3115055895 1.8760718792 6.30054503
56 2 4.7804707016 4.5278699841 6.3005177425
57 2 7.8425098229 4.5278525408 6.3005389509
58 2 9.467243009 3.5897967503 8.820337492
59 2 10.9982421162 0.9380357027 8.8203347205
60 2 7.9362389677 0.9380412342 8.8203543789
61 2 -3.1557500458 7.3419776175 6.3005263073
62 2 -4.6867891144 9.993794437 6.3005271227
63 2 -1.6247175711 9.9937967718 6.3005467915
64 2 3.6544648174e-05 9.0557564014 8.8203443229
65 2 1.5310415389 6.4039538738 8.8203350689
66 2 -1.5310029127 6.40392425 8.8203316172
67 2 3.1557515788 7.3419984313 6.3005187169
68 2 1.6247632521 9.9937863569 6.3005446768
69 2 4.6867542818 9.99380167 6.3005420331
70 2 6.3114610645 9.0557801156 8.8203388825
71 2 7.8425009139 6.4039160671 8.8203290011
72 2 4.7804482052 6.4039366323 8.820347339
73 2 -2.8579903312e-05 1.8760541186 11.3406454469
74 2 -1.5310233616 4.5278448154 11.3406477895
75 2 1.5310317229 4.5278867714 11.3406701417
76 2 3.1557604324 3.5898467818 13.861007598
77 2 4.686766843 0.9380456735 13.8610107793
78 2 1.6247325919 0.9380306744 13.8610106571
79 2 6.3114966779 1.8760591717 11.3406466216
80 2 4.780472036 4.5278742304 11.3406745415
81 2 7.8424948745 4.5278477052 11.3406392937
82 2 9.4672356872 3.5898247099 13.8610040575
83 2 10.9982562236 0.9380116315 13.8609913783
84 2 7.9362142642 0.938021678 13.8609845482
85 2 -3.1557496637 7.3419709401 11.3406731949
86 2 -4.6867905077 9.993789716 11.3406632298
87 2 -1.6246905878 9.993805058 11.3406624109
88 2 2.1208456439e-05 9.0557382141 13.860999409
89 2 1.5310418335 6.4039579437 13.860989109
90 2 -1.5309944129 6.4039517895 13.8610065075
91 2 3.1557432395 7.3420067531 11.3406836719
92 2 1.6247553558 9.9937743067 11.340645146
93 2 4.6867351946 9.9937768102 11.3406423084
94 2 6.3114762435 9.0557499339 13.8610058373
95 2 7.842490544 6.4039430843 13.8610195154
96 2 4.7804467485 6.4039406602 13.8609885859
