# LAMMPS data file written by OVITO Basic 3.7.11
72 atoms
4 atom types
0.0 9.9702783528 xlo xhi
0.0 11.1259722979 ylo yhi
0.0 13.1275680829 zlo zhi
-2.2761887042e-04 -9.6873509825e-05 -3.0061965006e-04 xy xz yz

Masses

1 26.981538  # Al
2 44.95591  # Sc
3 63.546  # Cu
4 1.00794  # H

Atoms  # atomic

1 1 -8.4575402335e-05 4.7847151162 3.2819497484
2 1 1.6611614278 0.7788110043 1.0935714235
3 1 1.6615812957 10.3472913396 3.2817766717
4 1 -5.4582257977e-05 6.341941978 1.0938614534
5 1 3.3233206075 4.7838899235 3.281886012
6 1 4.9851217198 0.7790323851 1.0939842727
7 1 4.9848407369 10.3469699136 3.2823092768
8 1 3.3228264162 6.3420193305 1.0938045566
9 1 6.6464594925 4.7839757757 3.2817183078
10 1 8.3094234314 0.7784839661 1.093231775
11 1 8.3083159376 10.3469543153 3.2820521093
12 1 6.6467001782 6.3420067161 1.0941007466
13 1 -7.7154326375e-05 4.7837673933 7.6577649552
14 1 1.6611172899 0.7783726449 5.4700999771
15 1 1.6612746644 10.3468652889 7.6575153336
16 1 -2.134057e-05 6.3418151124 5.4700003898
17 1 3.32335021 4.7840674157 7.6577252161
18 1 4.9850694621 0.7789543078 5.4697886055
19 1 4.9849110168 10.3468085337 7.6577149524
20 1 3.3231598689 6.3417835701 5.4699109459
21 1 6.6463191365 4.7840290039 7.6574875257
22 1 8.3095521646 0.778542105 5.4702719272
23 1 8.3088781377 10.3470371157 7.6576418167
24 1 6.6467552016 6.3420431175 5.469951568
25 1 -1.646593111e-04 4.7837083066 12.0334410175
26 1 1.66180925 0.7785268351 9.8455561594
27 1 1.6609471522 10.3467059986 12.033834622
28 1 -1.9158939331e-04 6.3415498854 9.8452201073
29 1 3.3232772234 4.7841290462 12.0335812756
30 1 4.9851454603 0.7785957471 9.8460147216
31 1 4.9848858295 10.3466296724 12.0335325101
32 1 3.3230506136 6.3416589577 9.845532009
33 1 6.64624324 4.7840971814 12.0337407398
34 1 8.3081517785 0.77849828 9.8456652032
35 1 8.3086703705 10.3466394051 12.03431773
36 1 6.6468701931 6.3414729444 9.8456858362
37 2 1.3645893137e-06 1.8058394071 3.2819670673
38 2 1.6614589678 3.7568001521 1.0937537171
39 2 1.6612958528 7.3688390139 3.2820167837
40 2 -1.316788234e-04 9.3197213048 1.0940612903
41 2 3.3232023194 1.8056263779 3.2819021094
42 2 4.9849132022 3.7571331437 1.0942700931
43 2 4.9848173033 7.3683883486 3.2818758095
44 2 3.3231385315 9.3200488444 1.093953609
45 2 6.6470911687 1.8055196231 3.2819136952
46 2 8.3085460117 3.7568179 1.0938739191
47 2 8.3085330232 7.3686408448 3.2820144005
48 2 6.6467691598 9.3200411351 1.0940370278
49 2 -1.6187959134e-05 1.805991577 7.6579507534
50 2 1.6614327899 3.756662081 5.4700834509
51 2 1.6613897041 7.3688883977 7.657925948
52 2 -1.150810374e-04 9.3196292309 5.4699148824
53 2 3.3232962814 1.8058582707 7.6577261883
54 2 4.9848760518 3.7569219321 5.4694773525
55 2 4.9848421617 7.3688676445 7.6576382602
56 2 3.3231356325 9.3198964257 5.4698545603
57 2 6.6469302415 1.8058260034 7.6576590711
58 2 8.3085180873 3.7566873454 5.4699281647
59 2 8.3084167449 7.3687996882 7.6578730568
60 2 6.6467015135 9.3199108018 5.469841792
61 2 -7.7769446345e-05 1.8058959919 12.0333388033
62 2 1.6616301817 3.7569639914 9.8455809331
63 2 1.6613262641 7.3688127585 12.0333331876
64 2 -2.0544954223e-04 9.3199190213 9.8455767231
65 2 3.3232724972 1.8057484449 12.0335916386
66 2 4.9849596025 3.7569708535 9.8456329785
67 2 4.9847952465 7.3687298332 12.0337051437
68 2 3.3230940343 9.3200537693 9.8456314443
69 2 6.6468930524 1.8057019728 12.0336545737
70 2 8.3082544631 3.7569508979 9.8456284183
71 2 8.3083687877 7.3686987463 12.0333838159
72 2 6.6467191767 9.3199890086 9.8456388242
